
     Program PWSCF v.7.2 starts on  4Apr2024 at 14:25:46 

     This program is part of the open-source Quantum ESPRESSO suite
     for quantum simulation of materials; please cite
         "P. Giannozzi et al., J. Phys.:Condens. Matter 21 395502 (2009);
         "P. Giannozzi et al., J. Phys.:Condens. Matter 29 465901 (2017);
         "P. Giannozzi et al., J. Chem. Phys. 152 154105 (2020);
          URL http://www.quantum-espresso.org", 
     in publications or presentations arising from this work. More details at
     http://www.quantum-espresso.org/quote

     Parallel version (MPI & OpenMP), running on       1 processor cores
     Number of MPI processes:                 1
     Threads/MPI process:                     1

     MPI processes distributed on     1 nodes
     38941 MiB available memory on the printing compute node when the environment starts

     Reading input from input.pwi
Warning: card &CELL ignored
Warning: card / ignored

     Current dimensions of program PWSCF are:
     Max number of different atomic species (ntypx) = 10
     Max number of k-points (npk) =  40000
     Max angular momentum in pseudopotentials (lmaxx) =  4
     file Al.pbe-n-kjpaw_psl.1.0.0.UPF: wavefunction(s)  3S 3P renormalized
     Found identity + (  0.0000  0.5000  0.5000) symmetry
     This is a supercell, fractional translations are disabled
     Message from routine setup:
     using ibrav=0 with symmetry is DISCOURAGED, use correct ibrav instead

     Subspace diagonalization in iterative solution of the eigenvalue problem:
     a serial algorithm will be used


     G-vector sticks info
     --------------------
     sticks:   dense  smooth     PW     G-vecs:    dense   smooth      PW
     Sum         673     553    161                13037     9771    1551

     Using Slab Decomposition



     bravais-lattice index     =            0
     lattice parameter (alat)  =       7.6444  a.u.
     unit-cell volume          =     446.7069 (a.u.)^3
     number of atoms/cell      =            4
     number of atomic types    =            1
     number of electrons       =        12.00
     number of Kohn-Sham states=           10
     kinetic-energy cutoff     =      29.4943  Ry
     charge density cutoff     =     143.4837  Ry
     scf convergence threshold =      1.0E-06
     mixing beta               =       0.7000
     number of iterations used =            8  plain     mixing
     Exchange-correlation= SLA  PW   PBX  PBC
                           (   1   4   3   4   0   0   0)

     celldm(1)=   7.644356  celldm(2)=   0.000000  celldm(3)=   0.000000
     celldm(4)=   0.000000  celldm(5)=   0.000000  celldm(6)=   0.000000

     crystal axes: (cart. coord. in units of alat)
               a(1) = (   1.000000   0.000000   0.000000 )  
               a(2) = (   0.000000   1.000000   0.000000 )  
               a(3) = (   0.000000   0.000000   1.000000 )  

     reciprocal axes: (cart. coord. in units 2 pi/alat)
               b(1) = (  1.000000  0.000000  0.000000 )  
               b(2) = (  0.000000  1.000000  0.000000 )  
               b(3) = (  0.000000  0.000000  1.000000 )  


     PseudoPot. # 1 for Al read from file:
     /home/jgeorge/espresso/pseudo/Al.pbe-n-kjpaw_psl.1.0.0.UPF
     MD5 check sum: cfc449ca30b5f3223ec38ddd88ac046d
     Pseudo is Projector augmented-wave + core cor, Zval =  3.0
     Generated using "atomic" code by A. Dal Corso  v.5.1
     Shape of augmentation charge: PSQ
     Using radial grid of 1135 points,  6 beta functions with: 
                l(1) =   0
                l(2) =   0
                l(3) =   1
                l(4) =   1
                l(5) =   2
                l(6) =   2
     Q(r) pseudized with 0 coefficients 


     atomic species   valence    mass     pseudopotential
        Al             3.00    26.98154     Al( 1.00)

     48 Sym. Ops., with inversion, found



   Cartesian axes

     site n.     atom                  positions (alat units)
         1           Al  tau(   1) = (   0.0000000   0.0000000   0.0000000  )
         2           Al  tau(   2) = (   0.0000000   0.5000000   0.5000000  )
         3           Al  tau(   3) = (   0.5000000   0.0000000   0.5000000  )
         4           Al  tau(   4) = (   0.5000000   0.5000000   0.0000000  )

     number of k points=     4  Gaussian smearing, width (Ry)=  0.0200
                       cart. coord. in units 2pi/alat
        k(    1) = (   0.0000000   0.0000000   0.0000000), wk =   0.0740741
        k(    2) = (   0.0000000   0.0000000   0.3333333), wk =   0.4444444
        k(    3) = (   0.0000000   0.3333333   0.3333333), wk =   0.8888889
        k(    4) = (   0.3333333   0.3333333   0.3333333), wk =   0.5925926

     Dense  grid:    13037 G-vectors     FFT dimensions: (  30,  30,  30)

     Smooth grid:     9771 G-vectors     FFT dimensions: (  27,  27,  27)

     Estimated max dynamical RAM per process >      50.45 MB

     Initial potential from superposition of free atoms

     starting charge      11.9908, renormalised to      12.0000
     Starting wfcs are   16 randomized atomic wfcs
     Checking if some PAW data can be deallocated... 

     total cpu time spent up to now is        1.4 secs

     per-process dynamical memory:    20.3 Mb

     Self-consistent Calculation

     iteration #  1     ecut=    29.49 Ry     beta= 0.70
     Davidson diagonalization with overlap
     ethr =  1.00E-02,  avg # of iterations =  4.2

     Threshold (ethr) on eigenvalues was too large:
     Diagonalizing with lowered threshold

     Davidson diagonalization with overlap
     ethr =  1.75E-04,  avg # of iterations =  2.8

     total cpu time spent up to now is        2.4 secs

     total energy              =    -158.01276399 Ry
     estimated scf accuracy    <       0.02121032 Ry

     iteration #  2     ecut=    29.49 Ry     beta= 0.70
     Davidson diagonalization with overlap
     ethr =  1.77E-04,  avg # of iterations =  1.0

     total cpu time spent up to now is        3.2 secs

     total energy              =    -158.01266638 Ry
     estimated scf accuracy    <       0.00153448 Ry

     iteration #  3     ecut=    29.49 Ry     beta= 0.70
     Davidson diagonalization with overlap
     ethr =  1.28E-05,  avg # of iterations =  3.2

     total cpu time spent up to now is        4.0 secs

     total energy              =    -158.01275733 Ry
     estimated scf accuracy    <       0.00000401 Ry

     iteration #  4     ecut=    29.49 Ry     beta= 0.70
     Davidson diagonalization with overlap
     ethr =  3.34E-08,  avg # of iterations =  5.2

     total cpu time spent up to now is        4.8 secs

     End of self-consistent calculation

          k = 0.0000 0.0000 0.0000 (  1213 PWs)   bands (ev):

    -3.2448   4.9539   4.9539   4.9539   6.2738   6.2740   6.2740  13.4594
    13.4596  13.4596

          k = 0.0000 0.0000 0.3333 (  1201 PWs)   bands (ev):

    -2.2426   0.7197   5.8749   5.8749   7.2242   7.2245   8.6474   8.6474
    10.2183  10.2187

          k = 0.0000 0.3333 0.3333 (  1206 PWs)   bands (ev):

    -1.2475   1.6941   1.6941   4.5719   6.7976   8.2639   9.5735   9.5736
    11.0352  11.0354

          k = 0.3333 0.3333 0.3333 (  1205 PWs)   bands (ev):

    -0.2593   2.6613   2.6615   2.6615   5.5419   5.5419   5.5421   8.3673
    14.0815  14.0816

     the Fermi energy is     8.0978 ev

!    total energy              =    -158.01277097 Ry
     total all-electron energy =     -1942.583897 Ry
     estimated scf accuracy    <       0.00000079 Ry
     smearing contrib. (-TS)   =      -0.00479492 Ry
     internal energy E=F+TS    =    -158.00797604 Ry

     The total energy is F=E-TS. E is the sum of the following terms:
     one-electron contribution =      12.63451727 Ry
     hartree contribution      =       0.01968419 Ry
     xc contribution           =     -10.35369012 Ry
     ewald contribution        =     -21.59175169 Ry
     one-center paw contrib.   =    -138.71673569 Ry

     convergence has been achieved in   4 iterations

     Forces acting on atoms (cartesian axes, Ry/au):

     atom    1 type  1   force =     0.00000000    0.00000000    0.00000000
     atom    2 type  1   force =     0.00000000    0.00000000    0.00000000
     atom    3 type  1   force =     0.00000000    0.00000000    0.00000000
     atom    4 type  1   force =     0.00000000    0.00000000    0.00000000
     The non-local contrib.  to forces
     atom    1 type  1   force =     0.00000000    0.00000000    0.00000000
     atom    2 type  1   force =     0.00000000    0.00000000    0.00000000
     atom    3 type  1   force =     0.00000000    0.00000000    0.00000000
     atom    4 type  1   force =     0.00000000    0.00000000    0.00000000
     The ionic contribution  to forces
     atom    1 type  1   force =    -0.00000000   -0.00000000   -0.00000000
     atom    2 type  1   force =    -0.00000000    0.00000000    0.00000000
     atom    3 type  1   force =     0.00000000   -0.00000000    0.00000000
     atom    4 type  1   force =     0.00000000    0.00000000   -0.00000000
     The local contribution  to forces
     atom    1 type  1   force =    -0.00000000   -0.00000000   -0.00000000
     atom    2 type  1   force =    -0.00000000   -0.00000000   -0.00000000
     atom    3 type  1   force =    -0.00000000   -0.00000000   -0.00000000
     atom    4 type  1   force =    -0.00000000   -0.00000000    0.00000000
     The core correction contribution to forces
     atom    1 type  1   force =     0.00000000    0.00000000    0.00000000
     atom    2 type  1   force =     0.00000000   -0.00000000   -0.00000000
     atom    3 type  1   force =    -0.00000000    0.00000000   -0.00000000
     atom    4 type  1   force =    -0.00000000   -0.00000000    0.00000000
     The Hubbard contrib.    to forces
     atom    1 type  1   force =     0.00000000    0.00000000    0.00000000
     atom    2 type  1   force =     0.00000000    0.00000000    0.00000000
     atom    3 type  1   force =     0.00000000    0.00000000    0.00000000
     atom    4 type  1   force =     0.00000000    0.00000000    0.00000000
     The SCF correction term to forces
     atom    1 type  1   force =     0.00000000    0.00000000    0.00000000
     atom    2 type  1   force =     0.00000000   -0.00000000   -0.00000000
     atom    3 type  1   force =    -0.00000000    0.00000000   -0.00000000
     atom    4 type  1   force =    -0.00000000   -0.00000000    0.00000000

     Total force =     0.000000     Total SCF correction =     0.000000


     Computing stress (Cartesian axis) and pressure

          total   stress  (Ry/bohr**3)                   (kbar)     P=        0.01
   0.00000008   0.00000000   0.00000000            0.01        0.00        0.00
   0.00000000   0.00000008   0.00000000            0.00        0.01        0.00
   0.00000000   0.00000000   0.00000008            0.00        0.00        0.01


     Writing all to output data dir ./pwscf.save/

     init_run     :      1.18s CPU      1.25s WALL (       1 calls)
     electrons    :      3.12s CPU      3.38s WALL (       1 calls)
     forces       :      0.09s CPU      0.11s WALL (       1 calls)
     stress       :      0.53s CPU      0.56s WALL (       1 calls)

     Called by init_run:
     wfcinit      :      0.10s CPU      0.11s WALL (       1 calls)
     potinit      :      0.68s CPU      0.72s WALL (       1 calls)
     hinit0       :      0.35s CPU      0.36s WALL (       1 calls)

     Called by electrons:
     c_bands      :      0.49s CPU      0.50s WALL (       5 calls)
     sum_band     :      0.26s CPU      0.32s WALL (       5 calls)
     v_of_rho     :      0.05s CPU      0.06s WALL (       5 calls)
     newd         :      0.17s CPU      0.21s WALL (       5 calls)
     PAW_pot      :      2.76s CPU      2.93s WALL (       5 calls)
     mix_rho      :      0.01s CPU      0.01s WALL (       5 calls)

     Called by c_bands:
     init_us_2    :      0.03s CPU      0.03s WALL (      52 calls)
     init_us_2:cp :      0.03s CPU      0.03s WALL (      52 calls)
     cegterg      :      0.42s CPU      0.42s WALL (      20 calls)

     Called by *egterg:
     cdiaghg      :      0.02s CPU      0.02s WALL (      82 calls)
     h_psi        :      0.43s CPU      0.43s WALL (      90 calls)
     s_psi        :      0.03s CPU      0.03s WALL (      90 calls)
     g_psi        :      0.00s CPU      0.00s WALL (      66 calls)

     Called by h_psi:
     h_psi:calbec :      0.04s CPU      0.04s WALL (      90 calls)
     vloc_psi     :      0.36s CPU      0.36s WALL (      90 calls)
     add_vuspsi   :      0.03s CPU      0.03s WALL (      90 calls)

     General routines
     calbec       :      0.06s CPU      0.06s WALL (     130 calls)
     fft          :      0.16s CPU      0.16s WALL (      89 calls)
     ffts         :      0.08s CPU      0.08s WALL (      10 calls)
     fftw         :      0.36s CPU      0.37s WALL (    1450 calls)
     interpolate  :      0.08s CPU      0.08s WALL (       5 calls)

     Parallel routines

     PWSCF        :      5.09s CPU      5.65s WALL


   This run was terminated on:  14:25:52   4Apr2024            

=------------------------------------------------------------------------------=
   JOB DONE.
=------------------------------------------------------------------------------=
