
     Program PWSCF v.7.2 starts on  4Apr2024 at 14:25:34 

     This program is part of the open-source Quantum ESPRESSO suite
     for quantum simulation of materials; please cite
         "P. Giannozzi et al., J. Phys.:Condens. Matter 21 395502 (2009);
         "P. Giannozzi et al., J. Phys.:Condens. Matter 29 465901 (2017);
         "P. Giannozzi et al., J. Chem. Phys. 152 154105 (2020);
          URL http://www.quantum-espresso.org", 
     in publications or presentations arising from this work. More details at
     http://www.quantum-espresso.org/quote

     Parallel version (MPI & OpenMP), running on       1 processor cores
     Number of MPI processes:                 1
     Threads/MPI process:                     1

     MPI processes distributed on     1 nodes
     37973 MiB available memory on the printing compute node when the environment starts

     Reading input from input.pwi
Warning: card &CELL ignored
Warning: card / ignored

     Current dimensions of program PWSCF are:
     Max number of different atomic species (ntypx) = 10
     Max number of k-points (npk) =  40000
     Max angular momentum in pseudopotentials (lmaxx) =  4
     file Al.pbe-n-kjpaw_psl.1.0.0.UPF: wavefunction(s)  3S 3P renormalized
     Found identity + (  0.0000 -0.5000 -0.5000) symmetry
     This is a supercell, fractional translations are disabled
     Message from routine setup:
     using ibrav=0 with symmetry is DISCOURAGED, use correct ibrav instead

     Subspace diagonalization in iterative solution of the eigenvalue problem:
     a serial algorithm will be used


     G-vector sticks info
     --------------------
     sticks:   dense  smooth     PW     G-vecs:    dense   smooth      PW
     Sum         621     509    145                11633     8709    1365

     Using Slab Decomposition



     bravais-lattice index     =            0
     lattice parameter (alat)  =       7.3805  a.u.
     unit-cell volume          =     402.0362 (a.u.)^3
     number of atoms/cell      =            4
     number of atomic types    =            1
     number of electrons       =        12.00
     number of Kohn-Sham states=           10
     kinetic-energy cutoff     =      29.4943  Ry
     charge density cutoff     =     143.4837  Ry
     scf convergence threshold =      1.0E-06
     mixing beta               =       0.7000
     number of iterations used =            8  plain     mixing
     Exchange-correlation= SLA  PW   PBX  PBC
                           (   1   4   3   4   0   0   0)

     celldm(1)=   7.380544  celldm(2)=   0.000000  celldm(3)=   0.000000
     celldm(4)=   0.000000  celldm(5)=   0.000000  celldm(6)=   0.000000

     crystal axes: (cart. coord. in units of alat)
               a(1) = (   1.000000   0.000000   0.000000 )  
               a(2) = (   0.000000   1.000000   0.000000 )  
               a(3) = (   0.000000   0.000000   1.000000 )  

     reciprocal axes: (cart. coord. in units 2 pi/alat)
               b(1) = (  1.000000  0.000000  0.000000 )  
               b(2) = (  0.000000  1.000000  0.000000 )  
               b(3) = (  0.000000  0.000000  1.000000 )  


     PseudoPot. # 1 for Al read from file:
     /home/jgeorge/espresso/pseudo/Al.pbe-n-kjpaw_psl.1.0.0.UPF
     MD5 check sum: cfc449ca30b5f3223ec38ddd88ac046d
     Pseudo is Projector augmented-wave + core cor, Zval =  3.0
     Generated using "atomic" code by A. Dal Corso  v.5.1
     Shape of augmentation charge: PSQ
     Using radial grid of 1135 points,  6 beta functions with: 
                l(1) =   0
                l(2) =   0
                l(3) =   1
                l(4) =   1
                l(5) =   2
                l(6) =   2
     Q(r) pseudized with 0 coefficients 


     atomic species   valence    mass     pseudopotential
        Al             3.00    26.98154     Al( 1.00)

     48 Sym. Ops., with inversion, found



   Cartesian axes

     site n.     atom                  positions (alat units)
         1           Al  tau(   1) = (   0.0000000   0.0000000   0.0000000  )
         2           Al  tau(   2) = (   0.0000000   0.5000000   0.5000000  )
         3           Al  tau(   3) = (   0.5000000   0.0000000   0.5000000  )
         4           Al  tau(   4) = (   0.5000000   0.5000000   0.0000000  )

     number of k points=     4  Gaussian smearing, width (Ry)=  0.0200
                       cart. coord. in units 2pi/alat
        k(    1) = (   0.0000000   0.0000000   0.0000000), wk =   0.0740741
        k(    2) = (   0.0000000   0.0000000   0.3333333), wk =   0.4444444
        k(    3) = (   0.0000000   0.3333333   0.3333333), wk =   0.8888889
        k(    4) = (   0.3333333   0.3333333   0.3333333), wk =   0.5925926

     Dense  grid:    11633 G-vectors     FFT dimensions: (  30,  30,  30)

     Smooth grid:     8709 G-vectors     FFT dimensions: (  25,  25,  25)

     Estimated max dynamical RAM per process >      45.33 MB

     Initial potential from superposition of free atoms

     starting charge      11.9908, renormalised to      12.0000
     Starting wfcs are   16 randomized atomic wfcs
     Checking if some PAW data can be deallocated... 

     total cpu time spent up to now is        1.4 secs

     per-process dynamical memory:    19.6 Mb

     Self-consistent Calculation

     iteration #  1     ecut=    29.49 Ry     beta= 0.70
     Davidson diagonalization with overlap
     ethr =  1.00E-02,  avg # of iterations =  4.2

     Threshold (ethr) on eigenvalues was too large:
     Diagonalizing with lowered threshold

     Davidson diagonalization with overlap
     ethr =  1.75E-04,  avg # of iterations =  3.0

     total cpu time spent up to now is        2.3 secs

     total energy              =    -157.99935198 Ry
     estimated scf accuracy    <       0.02135778 Ry

     iteration #  2     ecut=    29.49 Ry     beta= 0.70
     Davidson diagonalization with overlap
     ethr =  1.78E-04,  avg # of iterations =  1.0

     total cpu time spent up to now is        3.0 secs

     total energy              =    -157.99924728 Ry
     estimated scf accuracy    <       0.00160581 Ry

     iteration #  3     ecut=    29.49 Ry     beta= 0.70
     Davidson diagonalization with overlap
     ethr =  1.34E-05,  avg # of iterations =  2.0

     total cpu time spent up to now is        3.7 secs

     total energy              =    -157.99932489 Ry
     estimated scf accuracy    <       0.00000243 Ry

     iteration #  4     ecut=    29.49 Ry     beta= 0.70
     Davidson diagonalization with overlap
     ethr =  2.03E-08,  avg # of iterations =  7.2

     total cpu time spent up to now is        4.5 secs

     End of self-consistent calculation

          k = 0.0000 0.0000 0.0000 (  1045 PWs)   bands (ev):

    -2.8641   5.8270   5.8270   5.8270   7.3671   7.3671   7.3673  15.1076
    15.1077  15.1082

          k = 0.0000 0.0000 0.3333 (  1089 PWs)   bands (ev):

    -1.7902   1.3747   6.8017   6.8017   8.3182   8.3182   9.7382   9.7382
    11.8243  11.8250

          k = 0.0000 0.3333 0.3333 (  1095 PWs)   bands (ev):

    -0.7255   2.4121   2.4122   5.4567   7.7793   9.5725  10.7231  10.7233
    12.4514  12.4517

          k = 0.3333 0.3333 0.3333 (  1088 PWs)   bands (ev):

     0.3303   3.4356   3.4356   3.4356   6.5339   6.5339   6.5343   9.5326
    15.6367  15.6367

     the Fermi energy is     9.3455 ev

!    total energy              =    -157.99934392 Ry
     total all-electron energy =     -1942.570470 Ry
     estimated scf accuracy    <       0.00000062 Ry
     smearing contrib. (-TS)   =      -0.00520995 Ry
     internal energy E=F+TS    =    -157.99413397 Ry

     The total energy is F=E-TS. E is the sum of the following terms:
     one-electron contribution =      13.68699288 Ry
     hartree contribution      =       0.02395699 Ry
     xc contribution           =     -10.58659895 Ry
     ewald contribution        =     -22.36353091 Ry
     one-center paw contrib.   =    -138.75495399 Ry

     convergence has been achieved in   4 iterations

     Forces acting on atoms (cartesian axes, Ry/au):

     atom    1 type  1   force =     0.00000000    0.00000000    0.00000000
     atom    2 type  1   force =     0.00000000    0.00000000    0.00000000
     atom    3 type  1   force =     0.00000000    0.00000000    0.00000000
     atom    4 type  1   force =     0.00000000    0.00000000    0.00000000
     The non-local contrib.  to forces
     atom    1 type  1   force =     0.00000000    0.00000000    0.00000000
     atom    2 type  1   force =     0.00000000    0.00000000    0.00000000
     atom    3 type  1   force =     0.00000000    0.00000000    0.00000000
     atom    4 type  1   force =     0.00000000    0.00000000    0.00000000
     The ionic contribution  to forces
     atom    1 type  1   force =     0.00000000    0.00000000    0.00000000
     atom    2 type  1   force =     0.00000000   -0.00000000   -0.00000000
     atom    3 type  1   force =    -0.00000000    0.00000000   -0.00000000
     atom    4 type  1   force =    -0.00000000   -0.00000000    0.00000000
     The local contribution  to forces
     atom    1 type  1   force =    -0.00000000   -0.00000000   -0.00000000
     atom    2 type  1   force =    -0.00000000    0.00000000    0.00000000
     atom    3 type  1   force =     0.00000000    0.00000000    0.00000000
     atom    4 type  1   force =     0.00000000    0.00000000   -0.00000000
     The core correction contribution to forces
     atom    1 type  1   force =    -0.00000000   -0.00000000   -0.00000000
     atom    2 type  1   force =    -0.00000000    0.00000000    0.00000000
     atom    3 type  1   force =     0.00000000   -0.00000000    0.00000000
     atom    4 type  1   force =     0.00000000    0.00000000   -0.00000000
     The Hubbard contrib.    to forces
     atom    1 type  1   force =     0.00000000    0.00000000    0.00000000
     atom    2 type  1   force =     0.00000000    0.00000000    0.00000000
     atom    3 type  1   force =     0.00000000    0.00000000    0.00000000
     atom    4 type  1   force =     0.00000000    0.00000000    0.00000000
     The SCF correction term to forces
     atom    1 type  1   force =    -0.00000000   -0.00000000   -0.00000000
     atom    2 type  1   force =    -0.00000000    0.00000000    0.00000000
     atom    3 type  1   force =     0.00000000   -0.00000000    0.00000000
     atom    4 type  1   force =     0.00000000    0.00000000   -0.00000000

     Total force =     0.000000     Total SCF correction =     0.000000


     Computing stress (Cartesian axis) and pressure

          total   stress  (Ry/bohr**3)                   (kbar)     P=       97.61
   0.00066357   0.00000000   0.00000000           97.61        0.00        0.00
   0.00000000   0.00066357   0.00000000            0.00       97.61        0.00
   0.00000000   0.00000000   0.00066357            0.00        0.00       97.61


     Writing all to output data dir ./pwscf.save/

     init_run     :      1.12s CPU      1.20s WALL (       1 calls)
     electrons    :      3.11s CPU      3.19s WALL (       1 calls)
     forces       :      0.09s CPU      0.09s WALL (       1 calls)
     stress       :      0.52s CPU      0.52s WALL (       1 calls)

     Called by init_run:
     wfcinit      :      0.08s CPU      0.08s WALL (       1 calls)
     potinit      :      0.67s CPU      0.72s WALL (       1 calls)
     hinit0       :      0.35s CPU      0.35s WALL (       1 calls)

     Called by electrons:
     c_bands      :      0.36s CPU      0.38s WALL (       5 calls)
     sum_band     :      0.24s CPU      0.26s WALL (       5 calls)
     v_of_rho     :      0.06s CPU      0.06s WALL (       5 calls)
     newd         :      0.14s CPU      0.16s WALL (       5 calls)
     PAW_pot      :      2.91s CPU      2.97s WALL (       5 calls)
     mix_rho      :      0.01s CPU      0.01s WALL (       5 calls)

     Called by c_bands:
     init_us_2    :      0.03s CPU      0.03s WALL (      52 calls)
     init_us_2:cp :      0.03s CPU      0.03s WALL (      52 calls)
     cegterg      :      0.30s CPU      0.31s WALL (      20 calls)

     Called by *egterg:
     cdiaghg      :      0.02s CPU      0.02s WALL (      86 calls)
     h_psi        :      0.27s CPU      0.28s WALL (      94 calls)
     s_psi        :      0.03s CPU      0.03s WALL (      94 calls)
     g_psi        :      0.00s CPU      0.00s WALL (      70 calls)

     Called by h_psi:
     h_psi:calbec :      0.04s CPU      0.04s WALL (      94 calls)
     vloc_psi     :      0.21s CPU      0.21s WALL (      94 calls)
     add_vuspsi   :      0.03s CPU      0.03s WALL (      94 calls)

     General routines
     calbec       :      0.06s CPU      0.06s WALL (     134 calls)
     fft          :      0.16s CPU      0.16s WALL (      89 calls)
     ffts         :      0.06s CPU      0.06s WALL (      10 calls)
     fftw         :      0.19s CPU      0.19s WALL (    1546 calls)
     interpolate  :      0.06s CPU      0.06s WALL (       5 calls)

     Parallel routines

     PWSCF        :      5.00s CPU      5.39s WALL


   This run was terminated on:  14:25:39   4Apr2024            

=------------------------------------------------------------------------------=
   JOB DONE.
=------------------------------------------------------------------------------=
