
     Program PWSCF v.7.2 starts on  4Apr2024 at 14:23:42 

     This program is part of the open-source Quantum ESPRESSO suite
     for quantum simulation of materials; please cite
         "P. Giannozzi et al., J. Phys.:Condens. Matter 21 395502 (2009);
         "P. Giannozzi et al., J. Phys.:Condens. Matter 29 465901 (2017);
         "P. Giannozzi et al., J. Chem. Phys. 152 154105 (2020);
          URL http://www.quantum-espresso.org", 
     in publications or presentations arising from this work. More details at
     http://www.quantum-espresso.org/quote

     Parallel version (MPI & OpenMP), running on       1 processor cores
     Number of MPI processes:                 1
     Threads/MPI process:                     1

     MPI processes distributed on     1 nodes
     39169 MiB available memory on the printing compute node when the environment starts

     Reading input from input.pwi
Warning: card &CELL ignored
Warning: card / ignored

     Current dimensions of program PWSCF are:
     Max number of different atomic species (ntypx) = 10
     Max number of k-points (npk) =  40000
     Max angular momentum in pseudopotentials (lmaxx) =  4
     file Al.pbe-n-kjpaw_psl.1.0.0.UPF: wavefunction(s)  3S 3P renormalized
     Found identity + (  0.0000 -0.5000 -0.5000) symmetry
     This is a supercell, fractional translations are disabled
     Message from routine setup:
     using ibrav=0 with symmetry is DISCOURAGED, use correct ibrav instead

     Subspace diagonalization in iterative solution of the eigenvalue problem:
     a serial algorithm will be used


     G-vector sticks info
     --------------------
     sticks:   dense  smooth     PW     G-vecs:    dense   smooth      PW
     Sum         697     577    177                13949    10395    1743

     Using Slab Decomposition



     bravais-lattice index     =            0
     lattice parameter (alat)  =       7.8424  a.u.
     unit-cell volume          =     482.3262 (a.u.)^3
     number of atoms/cell      =            4
     number of atomic types    =            1
     number of electrons       =        12.00
     number of Kohn-Sham states=           10
     kinetic-energy cutoff     =      29.4943  Ry
     charge density cutoff     =     143.4837  Ry
     scf convergence threshold =      1.0E-06
     mixing beta               =       0.7000
     number of iterations used =            8  plain     mixing
     Exchange-correlation= SLA  PW   PBX  PBC
                           (   1   4   3   4   0   0   0)

     celldm(1)=   7.842363  celldm(2)=   0.000000  celldm(3)=   0.000000
     celldm(4)=   0.000000  celldm(5)=   0.000000  celldm(6)=   0.000000

     crystal axes: (cart. coord. in units of alat)
               a(1) = (   1.000000   0.000000   0.000000 )  
               a(2) = (   0.000000   1.000000   0.000000 )  
               a(3) = (   0.000000   0.000000   1.000000 )  

     reciprocal axes: (cart. coord. in units 2 pi/alat)
               b(1) = (  1.000000  0.000000  0.000000 )  
               b(2) = (  0.000000  1.000000  0.000000 )  
               b(3) = (  0.000000  0.000000  1.000000 )  


     PseudoPot. # 1 for Al read from file:
     /home/jgeorge/espresso/pseudo/Al.pbe-n-kjpaw_psl.1.0.0.UPF
     MD5 check sum: cfc449ca30b5f3223ec38ddd88ac046d
     Pseudo is Projector augmented-wave + core cor, Zval =  3.0
     Generated using "atomic" code by A. Dal Corso  v.5.1
     Shape of augmentation charge: PSQ
     Using radial grid of 1135 points,  6 beta functions with: 
                l(1) =   0
                l(2) =   0
                l(3) =   1
                l(4) =   1
                l(5) =   2
                l(6) =   2
     Q(r) pseudized with 0 coefficients 


     atomic species   valence    mass     pseudopotential
        Al             3.00    26.98154     Al( 1.00)

     48 Sym. Ops., with inversion, found



   Cartesian axes

     site n.     atom                  positions (alat units)
         1           Al  tau(   1) = (   0.0000000   0.0000000   0.0000000  )
         2           Al  tau(   2) = (   0.0000000   0.5000000   0.5000000  )
         3           Al  tau(   3) = (   0.5000000   0.0000000   0.5000000  )
         4           Al  tau(   4) = (   0.5000000   0.5000000   0.0000000  )

     number of k points=     4  Gaussian smearing, width (Ry)=  0.0200
                       cart. coord. in units 2pi/alat
        k(    1) = (   0.0000000   0.0000000   0.0000000), wk =   0.0740741
        k(    2) = (   0.0000000   0.0000000   0.3333333), wk =   0.4444444
        k(    3) = (   0.0000000   0.3333333   0.3333333), wk =   0.8888889
        k(    4) = (   0.3333333   0.3333333   0.3333333), wk =   0.5925926

     Dense  grid:    13949 G-vectors     FFT dimensions: (  30,  30,  30)

     Smooth grid:    10395 G-vectors     FFT dimensions: (  27,  27,  27)

     Estimated max dynamical RAM per process >      53.80 MB

     Initial potential from superposition of free atoms

     starting charge      11.9908, renormalised to      12.0000
     Starting wfcs are   16 randomized atomic wfcs
     Checking if some PAW data can be deallocated... 

     total cpu time spent up to now is        1.4 secs

     per-process dynamical memory:    21.0 Mb

     Self-consistent Calculation

     iteration #  1     ecut=    29.49 Ry     beta= 0.70
     Davidson diagonalization with overlap
     ethr =  1.00E-02,  avg # of iterations =  4.0

     Threshold (ethr) on eigenvalues was too large:
     Diagonalizing with lowered threshold

     Davidson diagonalization with overlap
     ethr =  1.74E-04,  avg # of iterations =  3.0

     total cpu time spent up to now is        2.4 secs

     total energy              =    -158.00669053 Ry
     estimated scf accuracy    <       0.02089704 Ry

     iteration #  2     ecut=    29.49 Ry     beta= 0.70
     Davidson diagonalization with overlap
     ethr =  1.74E-04,  avg # of iterations =  1.0

     total cpu time spent up to now is        3.2 secs

     total energy              =    -158.00662783 Ry
     estimated scf accuracy    <       0.00147551 Ry

     iteration #  3     ecut=    29.49 Ry     beta= 0.70
     Davidson diagonalization with overlap
     ethr =  1.23E-05,  avg # of iterations =  3.5

     total cpu time spent up to now is        3.9 secs

     total energy              =    -158.00671856 Ry
     estimated scf accuracy    <       0.00000427 Ry

     iteration #  4     ecut=    29.49 Ry     beta= 0.70
     Davidson diagonalization with overlap
     ethr =  3.56E-08,  avg # of iterations =  5.0

     total cpu time spent up to now is        4.8 secs

     total energy              =    -158.00673249 Ry
     estimated scf accuracy    <       0.00000100 Ry

     iteration #  5     ecut=    29.49 Ry     beta= 0.70
     Davidson diagonalization with overlap
     ethr =  8.34E-09,  avg # of iterations =  2.0

     total cpu time spent up to now is        5.6 secs

     End of self-consistent calculation

          k = 0.0000 0.0000 0.0000 (  1309 PWs)   bands (ev):

    -3.4923   4.3733   4.3733   4.3733   5.5074   5.5075   5.5075  12.3473
    12.3474  12.3474

          k = 0.0000 0.0000 0.3333 (  1310 PWs)   bands (ev):

    -2.5396   0.2814   5.2555   5.2555   6.4365   6.4366   7.9088   7.9088
     9.1733   9.1734

          k = 0.0000 0.3333 0.3333 (  1312 PWs)   bands (ev):

    -1.5930   1.2107   1.2107   3.9644   6.1386   7.3711   8.7933   8.7934
    10.0395  10.0395

          k = 0.3333 0.3333 0.3333 (  1295 PWs)   bands (ev):

    -0.6523   2.1349   2.1349   2.1349   4.8755   4.8756   4.8756   7.5751
    12.9967  12.9968

     the Fermi energy is     7.2267 ev

!    total energy              =    -158.00673266 Ry
     total all-electron energy =     -1942.577859 Ry
     estimated scf accuracy    <       0.00000003 Ry
     smearing contrib. (-TS)   =      -0.00444301 Ry
     internal energy E=F+TS    =    -158.00228965 Ry

     The total energy is F=E-TS. E is the sum of the following terms:
     one-electron contribution =      11.91461023 Ry
     hartree contribution      =       0.02061283 Ry
     xc contribution           =     -10.19539018 Ry
     ewald contribution        =     -21.04659348 Ry
     one-center paw contrib.   =    -138.69552904 Ry

     convergence has been achieved in   5 iterations

     Forces acting on atoms (cartesian axes, Ry/au):

     atom    1 type  1   force =     0.00000000    0.00000000    0.00000000
     atom    2 type  1   force =     0.00000000    0.00000000    0.00000000
     atom    3 type  1   force =     0.00000000    0.00000000    0.00000000
     atom    4 type  1   force =     0.00000000    0.00000000    0.00000000
     The non-local contrib.  to forces
     atom    1 type  1   force =     0.00000000    0.00000000    0.00000000
     atom    2 type  1   force =     0.00000000    0.00000000    0.00000000
     atom    3 type  1   force =     0.00000000    0.00000000    0.00000000
     atom    4 type  1   force =     0.00000000    0.00000000    0.00000000
     The ionic contribution  to forces
     atom    1 type  1   force =    -0.00000000   -0.00000000   -0.00000000
     atom    2 type  1   force =    -0.00000000    0.00000000    0.00000000
     atom    3 type  1   force =     0.00000000   -0.00000000    0.00000000
     atom    4 type  1   force =     0.00000000    0.00000000   -0.00000000
     The local contribution  to forces
     atom    1 type  1   force =    -0.00000000   -0.00000000   -0.00000000
     atom    2 type  1   force =    -0.00000000   -0.00000000   -0.00000000
     atom    3 type  1   force =    -0.00000000   -0.00000000   -0.00000000
     atom    4 type  1   force =    -0.00000000   -0.00000000    0.00000000
     The core correction contribution to forces
     atom    1 type  1   force =     0.00000000    0.00000000   -0.00000000
     atom    2 type  1   force =     0.00000000    0.00000000   -0.00000000
     atom    3 type  1   force =     0.00000000    0.00000000    0.00000000
     atom    4 type  1   force =     0.00000000   -0.00000000   -0.00000000
     The Hubbard contrib.    to forces
     atom    1 type  1   force =     0.00000000    0.00000000    0.00000000
     atom    2 type  1   force =     0.00000000    0.00000000    0.00000000
     atom    3 type  1   force =     0.00000000    0.00000000    0.00000000
     atom    4 type  1   force =     0.00000000    0.00000000    0.00000000
     The SCF correction term to forces
     atom    1 type  1   force =     0.00000000    0.00000000    0.00000000
     atom    2 type  1   force =     0.00000000    0.00000000    0.00000000
     atom    3 type  1   force =    -0.00000000    0.00000000   -0.00000000
     atom    4 type  1   force =    -0.00000000   -0.00000000    0.00000000

     Total force =     0.000000     Total SCF correction =     0.000000


     Computing stress (Cartesian axis) and pressure

          total   stress  (Ry/bohr**3)                   (kbar)     P=      -46.43
  -0.00031561   0.00000000   0.00000000          -46.43        0.00        0.00
   0.00000000  -0.00031561   0.00000000            0.00      -46.43        0.00
   0.00000000   0.00000000  -0.00031561            0.00        0.00      -46.43


     Writing all to output data dir ./pwscf.save/

     init_run     :      1.16s CPU      1.22s WALL (       1 calls)
     electrons    :      3.87s CPU      4.27s WALL (       1 calls)
     forces       :      0.10s CPU      0.12s WALL (       1 calls)
     stress       :      0.59s CPU      0.65s WALL (       1 calls)

     Called by init_run:
     wfcinit      :      0.09s CPU      0.10s WALL (       1 calls)
     potinit      :      0.67s CPU      0.69s WALL (       1 calls)
     hinit0       :      0.35s CPU      0.36s WALL (       1 calls)

     Called by electrons:
     c_bands      :      0.59s CPU      0.59s WALL (       6 calls)
     sum_band     :      0.33s CPU      0.41s WALL (       6 calls)
     v_of_rho     :      0.07s CPU      0.07s WALL (       6 calls)
     newd         :      0.19s CPU      0.28s WALL (       6 calls)
     PAW_pot      :      3.29s CPU      3.50s WALL (       6 calls)
     mix_rho      :      0.01s CPU      0.01s WALL (       6 calls)

     Called by c_bands:
     init_us_2    :      0.04s CPU      0.04s WALL (      60 calls)
     init_us_2:cp :      0.04s CPU      0.04s WALL (      60 calls)
     cegterg      :      0.49s CPU      0.50s WALL (      24 calls)

     Called by *egterg:
     cdiaghg      :      0.02s CPU      0.02s WALL (      94 calls)
     h_psi        :      0.48s CPU      0.48s WALL (     102 calls)
     s_psi        :      0.03s CPU      0.03s WALL (     102 calls)
     g_psi        :      0.00s CPU      0.00s WALL (      74 calls)

     Called by h_psi:
     h_psi:calbec :      0.05s CPU      0.05s WALL (     102 calls)
     vloc_psi     :      0.39s CPU      0.40s WALL (     102 calls)
     add_vuspsi   :      0.03s CPU      0.03s WALL (     102 calls)

     General routines
     calbec       :      0.07s CPU      0.08s WALL (     146 calls)
     fft          :      0.16s CPU      0.17s WALL (     102 calls)
     ffts         :      0.08s CPU      0.08s WALL (      12 calls)
     fftw         :      0.40s CPU      0.41s WALL (    1674 calls)
     interpolate  :      0.08s CPU      0.08s WALL (       6 calls)

     Parallel routines

     PWSCF        :      5.89s CPU      6.66s WALL


   This run was terminated on:  14:23:48   4Apr2024            

=------------------------------------------------------------------------------=
   JOB DONE.
=------------------------------------------------------------------------------=
