
     Program PWSCF v.7.2 starts on  4Apr2024 at 13:18:27 

     This program is part of the open-source Quantum ESPRESSO suite
     for quantum simulation of materials; please cite
         "P. Giannozzi et al., J. Phys.:Condens. Matter 21 395502 (2009);
         "P. Giannozzi et al., J. Phys.:Condens. Matter 29 465901 (2017);
         "P. Giannozzi et al., J. Chem. Phys. 152 154105 (2020);
          URL http://www.quantum-espresso.org", 
     in publications or presentations arising from this work. More details at
     http://www.quantum-espresso.org/quote

     Parallel version (MPI & OpenMP), running on       1 processor cores
     Number of MPI processes:                 1
     Threads/MPI process:                     1

     MPI processes distributed on     1 nodes
     51767 MiB available memory on the printing compute node when the environment starts

     Reading input from input.pwi

     Current dimensions of program PWSCF are:
     Max number of different atomic species (ntypx) = 10
     Max number of k-points (npk) =  40000
     Max angular momentum in pseudopotentials (lmaxx) =  4
     file Al.pbe-n-kjpaw_psl.1.0.0.UPF: wavefunction(s)  3S 3P renormalized
     Found identity + (  0.0000 -0.5000 -0.5000) symmetry
     This is a supercell, fractional translations are disabled
     Message from routine setup:
     using ibrav=0 with symmetry is DISCOURAGED, use correct ibrav instead

     Subspace diagonalization in iterative solution of the eigenvalue problem:
     a serial algorithm will be used


     G-vector sticks info
     --------------------
     sticks:   dense  smooth     PW     G-vecs:    dense   smooth      PW
     Sum         697     577    177                13949    10395    1743

     Using Slab Decomposition



     bravais-lattice index     =            0
     lattice parameter (alat)  =       7.8424  a.u.
     unit-cell volume          =     482.3262 (a.u.)^3
     number of atoms/cell      =            4
     number of atomic types    =            1
     number of electrons       =        12.00
     number of Kohn-Sham states=           10
     kinetic-energy cutoff     =      29.4943  Ry
     charge density cutoff     =     143.4837  Ry
     scf convergence threshold =      1.0E-06
     mixing beta               =       0.7000
     number of iterations used =            8  plain     mixing
     energy convergence thresh.=      1.0E-04
     force convergence thresh. =      1.0E-03
     press convergence thresh. =      5.0E-01
     Exchange-correlation= SLA  PW   PBX  PBC
                           (   1   4   3   4   0   0   0)
     nstep                     =           50


     celldm(1)=   7.842363  celldm(2)=   0.000000  celldm(3)=   0.000000
     celldm(4)=   0.000000  celldm(5)=   0.000000  celldm(6)=   0.000000

     crystal axes: (cart. coord. in units of alat)
               a(1) = (   1.000000   0.000000   0.000000 )  
               a(2) = (   0.000000   1.000000   0.000000 )  
               a(3) = (   0.000000   0.000000   1.000000 )  

     reciprocal axes: (cart. coord. in units 2 pi/alat)
               b(1) = (  1.000000  0.000000  0.000000 )  
               b(2) = (  0.000000  1.000000  0.000000 )  
               b(3) = (  0.000000  0.000000  1.000000 )  


     PseudoPot. # 1 for Al read from file:
     /home/jgeorge/espresso/pseudo/Al.pbe-n-kjpaw_psl.1.0.0.UPF
     MD5 check sum: cfc449ca30b5f3223ec38ddd88ac046d
     Pseudo is Projector augmented-wave + core cor, Zval =  3.0
     Generated using "atomic" code by A. Dal Corso  v.5.1
     Shape of augmentation charge: PSQ
     Using radial grid of 1135 points,  6 beta functions with: 
                l(1) =   0
                l(2) =   0
                l(3) =   1
                l(4) =   1
                l(5) =   2
                l(6) =   2
     Q(r) pseudized with 0 coefficients 


     atomic species   valence    mass     pseudopotential
        Al             3.00    26.98154     Al( 1.00)

     48 Sym. Ops., with inversion, found



   Cartesian axes

     site n.     atom                  positions (alat units)
         1           Al  tau(   1) = (   0.0000000   0.0000000   0.0000000  )
         2           Al  tau(   2) = (   0.0000000   0.5000000   0.5000000  )
         3           Al  tau(   3) = (   0.5000000   0.0000000   0.5000000  )
         4           Al  tau(   4) = (   0.5000000   0.5000000   0.0000000  )

     number of k points=     4  Gaussian smearing, width (Ry)=  0.0200
                       cart. coord. in units 2pi/alat
        k(    1) = (   0.0000000   0.0000000   0.0000000), wk =   0.0740741
        k(    2) = (   0.0000000   0.0000000   0.3333333), wk =   0.4444444
        k(    3) = (   0.0000000   0.3333333   0.3333333), wk =   0.8888889
        k(    4) = (   0.3333333   0.3333333   0.3333333), wk =   0.5925926

     Dense  grid:    13949 G-vectors     FFT dimensions: (  30,  30,  30)

     Smooth grid:    10395 G-vectors     FFT dimensions: (  27,  27,  27)

     Estimated max dynamical RAM per process >      54.76 MB

     Initial potential from superposition of free atoms

     starting charge      11.9908, renormalised to      12.0000
     Starting wfcs are   16 randomized atomic wfcs
     Checking if some PAW data can be deallocated... 

     total cpu time spent up to now is        2.1 secs

     per-process dynamical memory:    22.1 Mb

     Self-consistent Calculation

     iteration #  1     ecut=    29.49 Ry     beta= 0.70
     Davidson diagonalization with overlap
     ethr =  1.00E-02,  avg # of iterations =  4.0

     Threshold (ethr) on eigenvalues was too large:
     Diagonalizing with lowered threshold

     Davidson diagonalization with overlap
     ethr =  1.74E-04,  avg # of iterations =  3.0

     total cpu time spent up to now is        3.0 secs

     total energy              =    -158.00669053 Ry
     estimated scf accuracy    <       0.02089704 Ry

     iteration #  2     ecut=    29.49 Ry     beta= 0.70
     Davidson diagonalization with overlap
     ethr =  1.74E-04,  avg # of iterations =  1.0

     total cpu time spent up to now is        3.8 secs

     total energy              =    -158.00662783 Ry
     estimated scf accuracy    <       0.00147551 Ry

     iteration #  3     ecut=    29.49 Ry     beta= 0.70
     Davidson diagonalization with overlap
     ethr =  1.23E-05,  avg # of iterations =  3.5

     total cpu time spent up to now is        4.6 secs

     total energy              =    -158.00671856 Ry
     estimated scf accuracy    <       0.00000427 Ry

     iteration #  4     ecut=    29.49 Ry     beta= 0.70
     Davidson diagonalization with overlap
     ethr =  3.56E-08,  avg # of iterations =  5.0

     total cpu time spent up to now is        5.5 secs

     total energy              =    -158.00673249 Ry
     estimated scf accuracy    <       0.00000100 Ry

     iteration #  5     ecut=    29.49 Ry     beta= 0.70
     Davidson diagonalization with overlap
     ethr =  8.34E-09,  avg # of iterations =  2.0

     total cpu time spent up to now is        6.4 secs

     End of self-consistent calculation

          k = 0.0000 0.0000 0.0000 (  1309 PWs)   bands (ev):

    -3.4923   4.3733   4.3733   4.3733   5.5074   5.5075   5.5075  12.3473
    12.3474  12.3474

          k = 0.0000 0.0000 0.3333 (  1310 PWs)   bands (ev):

    -2.5396   0.2814   5.2555   5.2555   6.4365   6.4366   7.9088   7.9088
     9.1733   9.1734

          k = 0.0000 0.3333 0.3333 (  1312 PWs)   bands (ev):

    -1.5930   1.2107   1.2107   3.9644   6.1386   7.3711   8.7933   8.7934
    10.0395  10.0395

          k = 0.3333 0.3333 0.3333 (  1295 PWs)   bands (ev):

    -0.6523   2.1349   2.1349   2.1349   4.8755   4.8756   4.8756   7.5751
    12.9967  12.9968

     the Fermi energy is     7.2267 ev

!    total energy              =    -158.00673266 Ry
     total all-electron energy =     -1942.577859 Ry
     estimated scf accuracy    <       0.00000003 Ry
     smearing contrib. (-TS)   =      -0.00444301 Ry
     internal energy E=F+TS    =    -158.00228965 Ry

     The total energy is F=E-TS. E is the sum of the following terms:
     one-electron contribution =      11.91461023 Ry
     hartree contribution      =       0.02061283 Ry
     xc contribution           =     -10.19539018 Ry
     ewald contribution        =     -21.04659348 Ry
     one-center paw contrib.   =    -138.69552904 Ry

     convergence has been achieved in   5 iterations

     Forces acting on atoms (cartesian axes, Ry/au):

     atom    1 type  1   force =     0.00000000    0.00000000    0.00000000
     atom    2 type  1   force =     0.00000000    0.00000000    0.00000000
     atom    3 type  1   force =     0.00000000    0.00000000    0.00000000
     atom    4 type  1   force =     0.00000000    0.00000000    0.00000000
     The non-local contrib.  to forces
     atom    1 type  1   force =     0.00000000    0.00000000    0.00000000
     atom    2 type  1   force =     0.00000000    0.00000000    0.00000000
     atom    3 type  1   force =     0.00000000    0.00000000    0.00000000
     atom    4 type  1   force =     0.00000000    0.00000000    0.00000000
     The ionic contribution  to forces
     atom    1 type  1   force =    -0.00000000   -0.00000000   -0.00000000
     atom    2 type  1   force =    -0.00000000    0.00000000    0.00000000
     atom    3 type  1   force =     0.00000000   -0.00000000    0.00000000
     atom    4 type  1   force =     0.00000000    0.00000000   -0.00000000
     The local contribution  to forces
     atom    1 type  1   force =    -0.00000000   -0.00000000   -0.00000000
     atom    2 type  1   force =    -0.00000000   -0.00000000   -0.00000000
     atom    3 type  1   force =     0.00000000   -0.00000000   -0.00000000
     atom    4 type  1   force =     0.00000000   -0.00000000    0.00000000
     The core correction contribution to forces
     atom    1 type  1   force =     0.00000000    0.00000000    0.00000000
     atom    2 type  1   force =     0.00000000    0.00000000   -0.00000000
     atom    3 type  1   force =     0.00000000    0.00000000   -0.00000000
     atom    4 type  1   force =     0.00000000    0.00000000    0.00000000
     The Hubbard contrib.    to forces
     atom    1 type  1   force =     0.00000000    0.00000000    0.00000000
     atom    2 type  1   force =     0.00000000    0.00000000    0.00000000
     atom    3 type  1   force =     0.00000000    0.00000000    0.00000000
     atom    4 type  1   force =     0.00000000    0.00000000    0.00000000
     The SCF correction term to forces
     atom    1 type  1   force =    -0.00000000   -0.00000000    0.00000000
     atom    2 type  1   force =     0.00000000   -0.00000000    0.00000000
     atom    3 type  1   force =     0.00000000   -0.00000000   -0.00000000
     atom    4 type  1   force =     0.00000000   -0.00000000    0.00000000

     Total force =     0.000000     Total SCF correction =     0.000000


     Computing stress (Cartesian axis) and pressure

          total   stress  (Ry/bohr**3)                   (kbar)     P=      -46.43
  -0.00031561   0.00000000   0.00000000          -46.43        0.00        0.00
   0.00000000  -0.00031561   0.00000000            0.00      -46.43        0.00
   0.00000000   0.00000000  -0.00031561            0.00        0.00      -46.43


     BFGS Geometry Optimization
     Energy error            =      0.0E+00 Ry
     Gradient error          =      0.0E+00 Ry/Bohr
     Cell gradient error     =      4.6E+01 kbar

     number of scf cycles    =   1
     number of bfgs steps    =   0

     enthalpy           new  =    -158.0067326631 Ry

     new trust radius        =       0.0346568869 bohr
     new conv_thr            =       0.0000010000 Ry

     new unit-cell volume =    470.99911 a.u.^3 (    69.79487 Ang^3 )
     density =      2.56775 g/cm^3

CELL_PARAMETERS (angstrom)
   4.117255587   0.000000000   0.000000000
   0.000000000   4.117255587   0.000000000
   0.000000000   0.000000000   4.117255587

ATOMIC_POSITIONS (angstrom)
Al            0.0000000000        0.0000000000        0.0000000000
Al            0.0000000000        2.0586277937        2.0586277937
Al            2.0586277937        0.0000000000        2.0586277937
Al            2.0586277937        2.0586277937        0.0000000000



     Writing config-only to output data dir ./pwscf.save/
     NEW-OLD atomic charge density approx. for the potential
     extrapolated charge   11.71163, renormalised to   12.00000

     total cpu time spent up to now is       10.1 secs

     per-process dynamical memory:    29.0 Mb

     Self-consistent Calculation

     iteration #  1     ecut=    29.49 Ry     beta= 0.70
     Davidson diagonalization with overlap
     ethr =  1.00E-06,  avg # of iterations =  5.2

     total cpu time spent up to now is       10.9 secs

     total energy              =    -158.00983545 Ry
     estimated scf accuracy    <       0.00001900 Ry

     iteration #  2     ecut=    29.49 Ry     beta= 0.70
     Davidson diagonalization with overlap
     ethr =  1.58E-07,  avg # of iterations =  2.5

     total cpu time spent up to now is       11.6 secs

     total energy              =    -158.00983676 Ry
     estimated scf accuracy    <       0.00000117 Ry

     iteration #  3     ecut=    29.49 Ry     beta= 0.70
     Davidson diagonalization with overlap
     ethr =  9.74E-09,  avg # of iterations =  2.5

     total cpu time spent up to now is       12.3 secs

     End of self-consistent calculation

          k = 0.0000 0.0000 0.0000 (  1309 PWs)   bands (ev):

    -3.4180   4.5486   4.5486   4.5486   5.7424   5.7424   5.7424  12.6843
    12.6844  12.6844

          k = 0.0000 0.0000 0.3360 (  1310 PWs)   bands (ev):

    -2.4502   0.4140   5.4427   5.4427   6.6803   6.6803   8.1329   8.1329
     9.4860   9.4860

          k = 0.0000 0.3360 0.3360 (  1312 PWs)   bands (ev):

    -1.4888   1.3572   1.3572   4.1497   6.3380   7.6423   9.0302   9.0302
    10.3449  10.3449

          k = 0.3360 0.3360 0.3360 (  1295 PWs)   bands (ev):

    -0.5335   2.2950   2.2950   2.2950   5.0772   5.0772   5.0772   7.8157
    13.3286  13.3286

     the Fermi energy is     7.4927 ev

!    total energy              =    -158.00983709 Ry
     total all-electron energy =     -1942.580963 Ry
     estimated scf accuracy    <       0.00000002 Ry
     smearing contrib. (-TS)   =      -0.00454518 Ry
     internal energy E=F+TS    =    -158.00529190 Ry

     The total energy is F=E-TS. E is the sum of the following terms:
     one-electron contribution =      12.13370408 Ry
     hartree contribution      =       0.01991059 Ry
     xc contribution           =     -10.24340454 Ry
     ewald contribution        =     -21.21397642 Ry
     one-center paw contrib.   =    -138.70152561 Ry

     convergence has been achieved in   3 iterations

     Forces acting on atoms (cartesian axes, Ry/au):

     atom    1 type  1   force =     0.00000000    0.00000000    0.00000000
     atom    2 type  1   force =     0.00000000    0.00000000    0.00000000
     atom    3 type  1   force =     0.00000000    0.00000000    0.00000000
     atom    4 type  1   force =     0.00000000    0.00000000    0.00000000
     The non-local contrib.  to forces
     atom    1 type  1   force =     0.00000000    0.00000000    0.00000000
     atom    2 type  1   force =     0.00000000    0.00000000    0.00000000
     atom    3 type  1   force =     0.00000000    0.00000000    0.00000000
     atom    4 type  1   force =     0.00000000    0.00000000    0.00000000
     The ionic contribution  to forces
     atom    1 type  1   force =    -0.00000000   -0.00000000   -0.00000000
     atom    2 type  1   force =    -0.00000000   -0.00000000   -0.00000000
     atom    3 type  1   force =    -0.00000000   -0.00000000   -0.00000000
     atom    4 type  1   force =    -0.00000000   -0.00000000   -0.00000000
     The local contribution  to forces
     atom    1 type  1   force =    -0.00000000   -0.00000000    0.00000000
     atom    2 type  1   force =    -0.00000000   -0.00000000   -0.00000000
     atom    3 type  1   force =    -0.00000000    0.00000000   -0.00000000
     atom    4 type  1   force =     0.00000000   -0.00000000   -0.00000000
     The core correction contribution to forces
     atom    1 type  1   force =     0.00000000   -0.00000000    0.00000000
     atom    2 type  1   force =     0.00000000    0.00000000    0.00000000
     atom    3 type  1   force =     0.00000000    0.00000000    0.00000000
     atom    4 type  1   force =     0.00000000    0.00000000    0.00000000
     The Hubbard contrib.    to forces
     atom    1 type  1   force =     0.00000000    0.00000000    0.00000000
     atom    2 type  1   force =     0.00000000    0.00000000    0.00000000
     atom    3 type  1   force =     0.00000000    0.00000000    0.00000000
     atom    4 type  1   force =     0.00000000    0.00000000    0.00000000
     The SCF correction term to forces
     atom    1 type  1   force =     0.00000000   -0.00000000   -0.00000000
     atom    2 type  1   force =     0.00000000    0.00000000    0.00000000
     atom    3 type  1   force =    -0.00000000   -0.00000000    0.00000000
     atom    4 type  1   force =    -0.00000000    0.00000000   -0.00000000

     Total force =     0.000000     Total SCF correction =     0.000000


     Computing stress (Cartesian axis) and pressure

          total   stress  (Ry/bohr**3)                   (kbar)     P=      -33.91
  -0.00023050   0.00000000   0.00000000          -33.91        0.00        0.00
   0.00000000  -0.00023050   0.00000000            0.00      -33.91        0.00
   0.00000000   0.00000000  -0.00023050            0.00        0.00      -33.91

     Energy error            =      3.1E-03 Ry
     Gradient error          =      0.0E+00 Ry/Bohr
     Cell gradient error     =      3.4E+01 kbar

     number of scf cycles    =   2
     number of bfgs steps    =   1

     enthalpy           old  =    -158.0067326631 Ry
     enthalpy           new  =    -158.0098370869 Ry

     CASE: enthalpy          _new < enthalpy          _old

     new trust radius        =       0.0517798363 bohr
     new conv_thr            =       0.0000000100 Ry

     new unit-cell volume =    454.34310 a.u.^3 (    67.32670 Ang^3 )
     density =      2.66188 g/cm^3

CELL_PARAMETERS (angstrom)
   4.068138968   0.000000000   0.000000000
   0.000000000   4.068138968   0.000000000
   0.000000000   0.000000000   4.068138968

ATOMIC_POSITIONS (angstrom)
Al            0.0000000000        0.0000000000        0.0000000000
Al            0.0000000000        2.0340694842        2.0340694842
Al            2.0340694842        0.0000000000        2.0340694842
Al            2.0340694842        2.0340694842        0.0000000000



     Writing config-only to output data dir ./pwscf.save/
     NEW-OLD atomic charge density approx. for the potential
     extrapolated charge   11.56042, renormalised to   12.00000

     total cpu time spent up to now is       16.2 secs

     per-process dynamical memory:    28.8 Mb

     Self-consistent Calculation

     iteration #  1     ecut=    29.49 Ry     beta= 0.70
     Davidson diagonalization with overlap
     ethr =  1.00E-06,  avg # of iterations =  7.2

     total cpu time spent up to now is       17.1 secs

     total energy              =    -158.01247129 Ry
     estimated scf accuracy    <       0.00004705 Ry

     iteration #  2     ecut=    29.49 Ry     beta= 0.70
     Davidson diagonalization with overlap
     ethr =  3.92E-07,  avg # of iterations =  2.0

     total cpu time spent up to now is       17.9 secs

     total energy              =    -158.01247165 Ry
     estimated scf accuracy    <       0.00000311 Ry

     iteration #  3     ecut=    29.49 Ry     beta= 0.70
     Davidson diagonalization with overlap
     ethr =  2.59E-08,  avg # of iterations =  2.2

     total cpu time spent up to now is       18.6 secs

     total energy              =    -158.01247206 Ry
     estimated scf accuracy    <       0.00000004 Ry

     iteration #  4     ecut=    29.49 Ry     beta= 0.70
     Davidson diagonalization with overlap
     ethr =  3.71E-10,  avg # of iterations =  4.0

     total cpu time spent up to now is       19.4 secs

     End of self-consistent calculation

          k = 0.0000 0.0000 0.0000 (  1309 PWs)   bands (ev):

    -3.3014   4.8219   4.8219   4.8219   6.1026   6.1026   6.1026  13.2077
    13.2077  13.2078

          k = 0.0000 0.0000 0.3400 (  1310 PWs)   bands (ev):

    -2.3103   0.6203   5.7343   5.7343   7.0500   7.0500   8.4804   8.4804
     9.9787   9.9787

          k = 0.0000 0.3400 0.3400 (  1312 PWs)   bands (ev):

    -1.3261   1.5847   1.5847   4.4353   6.6482   8.0623   9.3973   9.3973
    10.8128  10.8128

          k = 0.3400 0.3400 0.3400 (  1295 PWs)   bands (ev):

    -0.3485   2.5427   2.5427   2.5427   5.3909   5.3909   5.3909   8.1884
    13.8385  13.8385

     the Fermi energy is     7.9024 ev

!    total energy              =    -158.01247210 Ry
     total all-electron energy =     -1942.583598 Ry
     estimated scf accuracy    <          6.7E-10 Ry
     smearing contrib. (-TS)   =      -0.00471347 Ry
     internal energy E=F+TS    =    -158.00775863 Ry

     The total energy is F=E-TS. E is the sum of the following terms:
     one-electron contribution =      12.47221728 Ry
     hartree contribution      =       0.01956241 Ry
     xc contribution           =     -10.31788402 Ry
     ewald contribution        =     -21.47010306 Ry
     one-center paw contrib.   =    -138.71155124 Ry

     convergence has been achieved in   4 iterations

     Forces acting on atoms (cartesian axes, Ry/au):

     atom    1 type  1   force =     0.00000000    0.00000000    0.00000000
     atom    2 type  1   force =     0.00000000    0.00000000    0.00000000
     atom    3 type  1   force =     0.00000000    0.00000000    0.00000000
     atom    4 type  1   force =     0.00000000    0.00000000    0.00000000
     The non-local contrib.  to forces
     atom    1 type  1   force =     0.00000000    0.00000000    0.00000000
     atom    2 type  1   force =     0.00000000    0.00000000    0.00000000
     atom    3 type  1   force =     0.00000000    0.00000000    0.00000000
     atom    4 type  1   force =     0.00000000    0.00000000    0.00000000
     The ionic contribution  to forces
     atom    1 type  1   force =    -0.00000000   -0.00000000   -0.00000000
     atom    2 type  1   force =    -0.00000000   -0.00000000   -0.00000000
     atom    3 type  1   force =    -0.00000000   -0.00000000   -0.00000000
     atom    4 type  1   force =    -0.00000000   -0.00000000   -0.00000000
     The local contribution  to forces
     atom    1 type  1   force =    -0.00000000    0.00000000    0.00000000
     atom    2 type  1   force =    -0.00000000   -0.00000000    0.00000000
     atom    3 type  1   force =     0.00000000    0.00000000    0.00000000
     atom    4 type  1   force =    -0.00000000   -0.00000000    0.00000000
     The core correction contribution to forces
     atom    1 type  1   force =     0.00000000    0.00000000   -0.00000000
     atom    2 type  1   force =     0.00000000    0.00000000    0.00000000
     atom    3 type  1   force =     0.00000000    0.00000000    0.00000000
     atom    4 type  1   force =     0.00000000    0.00000000   -0.00000000
     The Hubbard contrib.    to forces
     atom    1 type  1   force =     0.00000000    0.00000000    0.00000000
     atom    2 type  1   force =     0.00000000    0.00000000    0.00000000
     atom    3 type  1   force =     0.00000000    0.00000000    0.00000000
     atom    4 type  1   force =     0.00000000    0.00000000    0.00000000
     The SCF correction term to forces
     atom    1 type  1   force =    -0.00000000    0.00000000    0.00000000
     atom    2 type  1   force =    -0.00000000   -0.00000000   -0.00000000
     atom    3 type  1   force =     0.00000000   -0.00000000   -0.00000000
     atom    4 type  1   force =     0.00000000   -0.00000000   -0.00000000

     Total force =     0.000000     Total SCF correction =     0.000000


     Computing stress (Cartesian axis) and pressure

          total   stress  (Ry/bohr**3)                   (kbar)     P=      -11.85
  -0.00008053   0.00000000   0.00000000          -11.85        0.00        0.00
   0.00000000  -0.00008053   0.00000000            0.00      -11.85        0.00
   0.00000000   0.00000000  -0.00008053            0.00        0.00      -11.85

     Energy error            =      2.6E-03 Ry
     Gradient error          =      0.0E+00 Ry/Bohr
     Cell gradient error     =      1.2E+01 kbar

     number of scf cycles    =   3
     number of bfgs steps    =   2

     enthalpy           old  =    -158.0098370869 Ry
     enthalpy           new  =    -158.0124720993 Ry

     CASE: enthalpy          _new < enthalpy          _old

     new trust radius        =       0.0266430820 bohr
     new conv_thr            =       0.0000000100 Ry

     new unit-cell volume =    445.87764 a.u.^3 (    66.07225 Ang^3 )
     density =      2.71242 g/cm^3

CELL_PARAMETERS (angstrom)
   4.042714126   0.000000000   0.000000000
   0.000000000   4.042714126   0.000000000
   0.000000000   0.000000000   4.042714126

ATOMIC_POSITIONS (angstrom)
Al            0.0000000000        0.0000000000        0.0000000000
Al            0.0000000000        2.0213570628        2.0213570628
Al            2.0213570628        0.0000000000        2.0213570628
Al            2.0213570628        2.0213570628        0.0000000000



     Writing config-only to output data dir ./pwscf.save/
     NEW-OLD atomic charge density approx. for the potential
     extrapolated charge   11.77234, renormalised to   12.00000

     total cpu time spent up to now is       23.0 secs

     per-process dynamical memory:    28.8 Mb

     Self-consistent Calculation

     iteration #  1     ecut=    29.49 Ry     beta= 0.70
     Davidson diagonalization with overlap
     ethr =  1.00E-06,  avg # of iterations =  5.2

     total cpu time spent up to now is       23.8 secs

     total energy              =    -158.01278025 Ry
     estimated scf accuracy    <       0.00001201 Ry

     iteration #  2     ecut=    29.49 Ry     beta= 0.70
     Davidson diagonalization with overlap
     ethr =  1.00E-07,  avg # of iterations =  2.5

     total cpu time spent up to now is       24.6 secs

     total energy              =    -158.01278191 Ry
     estimated scf accuracy    <       0.00000062 Ry

     iteration #  3     ecut=    29.49 Ry     beta= 0.70
     Davidson diagonalization with overlap
     ethr =  5.18E-09,  avg # of iterations =  3.2

     total cpu time spent up to now is       25.3 secs

     End of self-consistent calculation

          k = 0.0000 0.0000 0.0000 (  1309 PWs)   bands (ev):

    -3.2383   4.9688   4.9688   4.9688   6.2930   6.2930   6.2930  13.4875
    13.4876  13.4876

          k = 0.0000 0.0000 0.3422 (  1310 PWs)   bands (ev):

    -2.2349   0.7309   5.8907   5.8907   7.2436   7.2436   8.6660   8.6660
    10.2454  10.2454

          k = 0.0000 0.3422 0.3422 (  1312 PWs)   bands (ev):

    -1.2386   1.7064   1.7064   4.5872   6.8144   8.2863   9.5933   9.5933
    11.0600  11.0600

          k = 0.3422 0.3422 0.3422 (  1295 PWs)   bands (ev):

    -0.2492   2.6747   2.6747   2.6747   5.5589   5.5589   5.5589   8.3872
    14.1085  14.1085

     the Fermi energy is     8.1196 ev

!    total energy              =    -158.01278219 Ry
     total all-electron energy =     -1942.583909 Ry
     estimated scf accuracy    <          8.5E-09 Ry
     smearing contrib. (-TS)   =      -0.00480383 Ry
     internal energy E=F+TS    =    -158.00797836 Ry

     The total energy is F=E-TS. E is the sum of the following terms:
     one-electron contribution =      12.65230384 Ry
     hartree contribution      =       0.01970805 Ry
     xc contribution           =     -10.35762700 Ry
     ewald contribution        =     -21.60512967 Ry
     one-center paw contrib.   =    -138.71723358 Ry

     convergence has been achieved in   3 iterations

     Forces acting on atoms (cartesian axes, Ry/au):

     atom    1 type  1   force =     0.00000000    0.00000000    0.00000000
     atom    2 type  1   force =     0.00000000    0.00000000    0.00000000
     atom    3 type  1   force =     0.00000000    0.00000000    0.00000000
     atom    4 type  1   force =     0.00000000    0.00000000    0.00000000
     The non-local contrib.  to forces
     atom    1 type  1   force =     0.00000000    0.00000000    0.00000000
     atom    2 type  1   force =     0.00000000    0.00000000    0.00000000
     atom    3 type  1   force =     0.00000000    0.00000000    0.00000000
     atom    4 type  1   force =     0.00000000    0.00000000    0.00000000
     The ionic contribution  to forces
     atom    1 type  1   force =    -0.00000000   -0.00000000   -0.00000000
     atom    2 type  1   force =    -0.00000000   -0.00000000   -0.00000000
     atom    3 type  1   force =    -0.00000000   -0.00000000   -0.00000000
     atom    4 type  1   force =    -0.00000000   -0.00000000   -0.00000000
     The local contribution  to forces
     atom    1 type  1   force =     0.00000000   -0.00000000   -0.00000000
     atom    2 type  1   force =     0.00000000   -0.00000000    0.00000000
     atom    3 type  1   force =     0.00000000   -0.00000000    0.00000000
     atom    4 type  1   force =    -0.00000000   -0.00000000   -0.00000000
     The core correction contribution to forces
     atom    1 type  1   force =     0.00000000   -0.00000000    0.00000000
     atom    2 type  1   force =     0.00000000    0.00000000    0.00000000
     atom    3 type  1   force =     0.00000000   -0.00000000    0.00000000
     atom    4 type  1   force =     0.00000000    0.00000000    0.00000000
     The Hubbard contrib.    to forces
     atom    1 type  1   force =     0.00000000    0.00000000    0.00000000
     atom    2 type  1   force =     0.00000000    0.00000000    0.00000000
     atom    3 type  1   force =     0.00000000    0.00000000    0.00000000
     atom    4 type  1   force =     0.00000000    0.00000000    0.00000000
     The SCF correction term to forces
     atom    1 type  1   force =    -0.00000000    0.00000000   -0.00000000
     atom    2 type  1   force =    -0.00000000   -0.00000000    0.00000000
     atom    3 type  1   force =     0.00000000    0.00000000    0.00000000
     atom    4 type  1   force =     0.00000000   -0.00000000   -0.00000000

     Total force =     0.000000     Total SCF correction =     0.000000


     Computing stress (Cartesian axis) and pressure

          total   stress  (Ry/bohr**3)                   (kbar)     P=        1.31
   0.00000891   0.00000000   0.00000000            1.31        0.00        0.00
   0.00000000   0.00000891   0.00000000            0.00        1.31        0.00
   0.00000000   0.00000000   0.00000891            0.00        0.00        1.31

     Energy error            =      3.1E-04 Ry
     Gradient error          =      0.0E+00 Ry/Bohr
     Cell gradient error     =      1.3E+00 kbar

     number of scf cycles    =   4
     number of bfgs steps    =   3

     enthalpy           old  =    -158.0124720993 Ry
     enthalpy           new  =    -158.0127821944 Ry

     CASE: enthalpy          _new < enthalpy          _old

     new trust radius        =       0.0026166386 bohr
     new conv_thr            =       0.0000000100 Ry

     new unit-cell volume =    446.70694 a.u.^3 (    66.19514 Ang^3 )
     density =      2.70738 g/cm^3

CELL_PARAMETERS (angstrom)
   4.045218960   0.000000000   0.000000000
   0.000000000   4.045218960   0.000000000
   0.000000000   0.000000000   4.045218960

ATOMIC_POSITIONS (angstrom)
Al            0.0000000000        0.0000000000        0.0000000000
Al            0.0000000000        2.0226094798        2.0226094798
Al            2.0226094798        0.0000000000        2.0226094798
Al            2.0226094798        2.0226094798        0.0000000000



     Writing config-only to output data dir ./pwscf.save/
     NEW-OLD atomic charge density approx. for the potential
     extrapolated charge   12.02226, renormalised to   12.00000

     total cpu time spent up to now is       29.1 secs

     per-process dynamical memory:    28.8 Mb

     Self-consistent Calculation

     iteration #  1     ecut=    29.49 Ry     beta= 0.70
     Davidson diagonalization with overlap
     ethr =  1.00E-06,  avg # of iterations =  2.0

     Threshold (ethr) on eigenvalues was too large:
     Diagonalizing with lowered threshold

     Davidson diagonalization with overlap
     ethr =  1.39E-09,  avg # of iterations =  4.5

     total cpu time spent up to now is       30.0 secs

     total energy              =    -158.01278575 Ry
     estimated scf accuracy    <       0.00000009 Ry

     iteration #  2     ecut=    29.49 Ry     beta= 0.70
     Davidson diagonalization with overlap
     ethr =  7.63E-10,  avg # of iterations =  2.0

     total cpu time spent up to now is       30.7 secs

     End of self-consistent calculation

          k = 0.0000 0.0000 0.0000 (  1309 PWs)   bands (ev):

    -3.2447   4.9540   4.9540   4.9540   6.2740   6.2740   6.2740  13.4594
    13.4596  13.4597

          k = 0.0000 0.0000 0.3420 (  1310 PWs)   bands (ev):

    -2.2425   0.7198   5.8750   5.8750   7.2243   7.2244   8.6475   8.6475
    10.2186  10.2186

          k = 0.0000 0.3420 0.3420 (  1312 PWs)   bands (ev):

    -1.2474   1.6942   1.6942   4.5720   6.7977   8.2640   9.5737   9.5737
    11.0353  11.0354

          k = 0.3420 0.3420 0.3420 (  1295 PWs)   bands (ev):

    -0.2592   2.6615   2.6615   2.6615   5.5421   5.5421   5.5421   8.3673
    14.0816  14.0816

     the Fermi energy is     8.0979 ev

!    total energy              =    -158.01278575 Ry
     total all-electron energy =     -1942.583912 Ry
     estimated scf accuracy    <          6.9E-09 Ry
     smearing contrib. (-TS)   =      -0.00479489 Ry
     internal energy E=F+TS    =    -158.00799086 Ry

     The total energy is F=E-TS. E is the sum of the following terms:
     one-electron contribution =      12.63442792 Ry
     hartree contribution      =       0.01968267 Ry
     xc contribution           =     -10.35367495 Ry
     ewald contribution        =     -21.59175159 Ry
     one-center paw contrib.   =    -138.71667491 Ry

     convergence has been achieved in   2 iterations

     Forces acting on atoms (cartesian axes, Ry/au):

     atom    1 type  1   force =     0.00000000    0.00000000    0.00000000
     atom    2 type  1   force =     0.00000000    0.00000000    0.00000000
     atom    3 type  1   force =     0.00000000    0.00000000    0.00000000
     atom    4 type  1   force =     0.00000000    0.00000000    0.00000000
     The non-local contrib.  to forces
     atom    1 type  1   force =     0.00000000    0.00000000    0.00000000
     atom    2 type  1   force =     0.00000000    0.00000000    0.00000000
     atom    3 type  1   force =     0.00000000    0.00000000    0.00000000
     atom    4 type  1   force =     0.00000000    0.00000000    0.00000000
     The ionic contribution  to forces
     atom    1 type  1   force =    -0.00000000   -0.00000000   -0.00000000
     atom    2 type  1   force =    -0.00000000   -0.00000000   -0.00000000
     atom    3 type  1   force =    -0.00000000   -0.00000000   -0.00000000
     atom    4 type  1   force =    -0.00000000   -0.00000000   -0.00000000
     The local contribution  to forces
     atom    1 type  1   force =     0.00000000   -0.00000000    0.00000000
     atom    2 type  1   force =     0.00000000    0.00000000   -0.00000000
     atom    3 type  1   force =     0.00000000    0.00000000   -0.00000000
     atom    4 type  1   force =     0.00000000   -0.00000000    0.00000000
     The core correction contribution to forces
     atom    1 type  1   force =     0.00000000    0.00000000   -0.00000000
     atom    2 type  1   force =     0.00000000    0.00000000    0.00000000
     atom    3 type  1   force =     0.00000000   -0.00000000    0.00000000
     atom    4 type  1   force =     0.00000000    0.00000000    0.00000000
     The Hubbard contrib.    to forces
     atom    1 type  1   force =     0.00000000    0.00000000    0.00000000
     atom    2 type  1   force =     0.00000000    0.00000000    0.00000000
     atom    3 type  1   force =     0.00000000    0.00000000    0.00000000
     atom    4 type  1   force =     0.00000000    0.00000000    0.00000000
     The SCF correction term to forces
     atom    1 type  1   force =     0.00000000    0.00000000   -0.00000000
     atom    2 type  1   force =     0.00000000   -0.00000000   -0.00000000
     atom    3 type  1   force =    -0.00000000    0.00000000   -0.00000000
     atom    4 type  1   force =    -0.00000000    0.00000000    0.00000000

     Total force =     0.000000     Total SCF correction =     0.000000


     Computing stress (Cartesian axis) and pressure

          total   stress  (Ry/bohr**3)                   (kbar)     P=       -0.05
  -0.00000031   0.00000000   0.00000000           -0.05        0.00        0.00
   0.00000000  -0.00000031   0.00000000            0.00       -0.05        0.00
   0.00000000   0.00000000  -0.00000031            0.00        0.00       -0.05

     Energy error            =      3.6E-06 Ry
     Gradient error          =      0.0E+00 Ry/Bohr
     Cell gradient error     =      4.5E-02 kbar

     bfgs converged in   5 scf cycles and   4 bfgs steps
     (criteria: energy <  1.0E-04 Ry, force <  1.0E-03 Ry/Bohr, cell <  5.0E-01 kbar)

     End of BFGS Geometry Optimization

     Final enthalpy           =    -158.0127857542 Ry

     File ./pwscf.bfgs deleted, as requested
Begin final coordinates
     new unit-cell volume =    446.70694 a.u.^3 (    66.19514 Ang^3 )
     density =      2.70738 g/cm^3

CELL_PARAMETERS (angstrom)
   4.045218960   0.000000000   0.000000000
   0.000000000   4.045218960   0.000000000
   0.000000000   0.000000000   4.045218960

ATOMIC_POSITIONS (angstrom)
Al            0.0000000000        0.0000000000        0.0000000000
Al            0.0000000000        2.0226094798        2.0226094798
Al            2.0226094798        0.0000000000        2.0226094798
Al            2.0226094798        2.0226094798        0.0000000000
End final coordinates



     Writing config-only to output data dir ./pwscf.save/

     Final scf calculation at the relaxed structure.
     The G-vectors are recalculated for the final unit cell
     Results may differ from those at the preceding step.

     G-vector sticks info
     --------------------
     sticks:   dense  smooth     PW     G-vecs:    dense   smooth      PW
     Sum         673     553    161                13037     9771    1551

     Using Slab Decomposition



     bravais-lattice index     =            0
     lattice parameter (alat)  =       7.8424  a.u.
     unit-cell volume          =     446.7069 (a.u.)^3
     number of atoms/cell      =            4
     number of atomic types    =            1
     number of electrons       =        12.00
     number of Kohn-Sham states=           10
     kinetic-energy cutoff     =      29.4943  Ry
     charge density cutoff     =     143.4837  Ry
     scf convergence threshold =      1.0E-08
     mixing beta               =       0.7000
     number of iterations used =            8  plain     mixing
     press convergence thresh. =      5.0E-01
     Exchange-correlation= SLA  PW   PBX  PBC
                           (   1   4   3   4   0   0   0)

     celldm(1)=   7.842363  celldm(2)=   0.000000  celldm(3)=   0.000000
     celldm(4)=   0.000000  celldm(5)=   0.000000  celldm(6)=   0.000000

     crystal axes: (cart. coord. in units of alat)
               a(1) = (   0.974752   0.000000   0.000000 )  
               a(2) = (   0.000000   0.974752   0.000000 )  
               a(3) = (   0.000000   0.000000   0.974752 )  

     reciprocal axes: (cart. coord. in units 2 pi/alat)
               b(1) = (  1.025902  0.000000  0.000000 )  
               b(2) = (  0.000000  1.025902  0.000000 )  
               b(3) = (  0.000000  0.000000  1.025902 )  


     PseudoPot. # 1 for Al read from file:
     /home/jgeorge/espresso/pseudo/Al.pbe-n-kjpaw_psl.1.0.0.UPF
     MD5 check sum: cfc449ca30b5f3223ec38ddd88ac046d
     Pseudo is Projector augmented-wave + core cor, Zval =  3.0
     Generated using "atomic" code by A. Dal Corso  v.5.1
     Shape of augmentation charge: PSQ
     Using radial grid of 1135 points,  6 beta functions with: 
                l(1) =   0
                l(2) =   0
                l(3) =   1
                l(4) =   1
                l(5) =   2
                l(6) =   2
     Q(r) pseudized with 0 coefficients 


     atomic species   valence    mass     pseudopotential
        Al             3.00    26.98154     Al( 1.00)

     48 Sym. Ops., with inversion, found



   Cartesian axes

     site n.     atom                  positions (alat units)
         1           Al  tau(   1) = (   0.0000000   0.0000000   0.0000000  )
         2           Al  tau(   2) = (   0.0000000   0.4873758   0.4873758  )
         3           Al  tau(   3) = (   0.4873758   0.0000000   0.4873758  )
         4           Al  tau(   4) = (   0.4873758   0.4873758   0.0000000  )

     number of k points=     4  Gaussian smearing, width (Ry)=  0.0200
                       cart. coord. in units 2pi/alat
        k(    1) = (   0.0000000   0.0000000   0.0000000), wk =   0.0740741
        k(    2) = (   0.0000000   0.0000000   0.3419675), wk =   0.4444444
        k(    3) = (   0.0000000   0.3419675   0.3419675), wk =   0.8888889
        k(    4) = (   0.3419675   0.3419675   0.3419675), wk =   0.5925926

     Dense  grid:    13037 G-vectors     FFT dimensions: (  30,  30,  30)

     Smooth grid:     9771 G-vectors     FFT dimensions: (  27,  27,  27)

     Estimated max dynamical RAM per process >      51.51 MB

     Initial potential from superposition of free atoms

     starting charge      11.9908, renormalised to      12.0000
     Starting wfcs are   16 randomized atomic wfcs
     Checking if some PAW data can be deallocated... 

     total cpu time spent up to now is       34.1 secs

     per-process dynamical memory:    27.9 Mb

     Self-consistent Calculation

     iteration #  1     ecut=    29.49 Ry     beta= 0.70
     Davidson diagonalization with overlap
     c_bands:  1 eigenvalues not converged
     ethr =  1.00E-06,  avg # of iterations = 17.0

     total cpu time spent up to now is       35.1 secs

     total energy              =    -158.01286676 Ry
     estimated scf accuracy    <       0.02152275 Ry

     iteration #  2     ecut=    29.49 Ry     beta= 0.70
     Davidson diagonalization with overlap
     ethr =  1.79E-04,  avg # of iterations =  1.0

     total cpu time spent up to now is       35.8 secs

     total energy              =    -158.01268720 Ry
     estimated scf accuracy    <       0.00152000 Ry

     iteration #  3     ecut=    29.49 Ry     beta= 0.70
     Davidson diagonalization with overlap
     ethr =  1.27E-05,  avg # of iterations =  1.2

     total cpu time spent up to now is       36.5 secs

     total energy              =    -158.01274972 Ry
     estimated scf accuracy    <       0.00000274 Ry

     iteration #  4     ecut=    29.49 Ry     beta= 0.70
     Davidson diagonalization with overlap
     ethr =  2.28E-08,  avg # of iterations =  5.0

     total cpu time spent up to now is       37.4 secs

     total energy              =    -158.01277120 Ry
     estimated scf accuracy    <       0.00000168 Ry

     iteration #  5     ecut=    29.49 Ry     beta= 0.70
     Davidson diagonalization with overlap
     ethr =  1.40E-08,  avg # of iterations =  1.5

     total cpu time spent up to now is       38.2 secs

     total energy              =    -158.01277125 Ry
     estimated scf accuracy    <       0.00000004 Ry

     iteration #  6     ecut=    29.49 Ry     beta= 0.70
     Davidson diagonalization with overlap
     ethr =  3.18E-10,  avg # of iterations =  4.5

     total cpu time spent up to now is       39.0 secs

     End of self-consistent calculation

          k = 0.0000 0.0000 0.0000 (  1213 PWs)   bands (ev):

    -3.2447   4.9541   4.9541   4.9541   6.2740   6.2740   6.2740  13.1274
    13.4594  13.4596

          k = 0.0000 0.0000 0.3420 (  1201 PWs)   bands (ev):

    -2.2425   0.7198   5.8751   5.8751   7.2244   7.2244   8.6475   8.6475
    10.2186  10.2186

          k = 0.0000 0.3420 0.3420 (  1206 PWs)   bands (ev):

    -1.2474   1.6942   1.6942   4.5720   6.7978   8.2640   9.5737   9.5737
    11.0354  11.0354

          k = 0.3420 0.3420 0.3420 (  1205 PWs)   bands (ev):

    -0.2592   2.6615   2.6615   2.6615   5.5421   5.5421   5.5421   8.3674
    14.0816  14.0816

     the Fermi energy is     8.0979 ev

!    total energy              =    -158.01277127 Ry
     total all-electron energy =     -1942.583898 Ry
     estimated scf accuracy    <          3.1E-09 Ry
     smearing contrib. (-TS)   =      -0.00479485 Ry
     internal energy E=F+TS    =    -158.00797642 Ry

     The total energy is F=E-TS. E is the sum of the following terms:
     one-electron contribution =      12.63445494 Ry
     hartree contribution      =       0.01968256 Ry
     xc contribution           =     -10.35367242 Ry
     ewald contribution        =     -21.59175160 Ry
     one-center paw contrib.   =    -138.71668989 Ry

     convergence has been achieved in   6 iterations

     Forces acting on atoms (cartesian axes, Ry/au):

     atom    1 type  1   force =     0.00000000    0.00000000    0.00000000
     atom    2 type  1   force =     0.00000000    0.00000000    0.00000000
     atom    3 type  1   force =     0.00000000    0.00000000    0.00000000
     atom    4 type  1   force =     0.00000000    0.00000000    0.00000000
     The non-local contrib.  to forces
     atom    1 type  1   force =     0.00000000    0.00000000    0.00000000
     atom    2 type  1   force =     0.00000000    0.00000000    0.00000000
     atom    3 type  1   force =     0.00000000    0.00000000    0.00000000
     atom    4 type  1   force =     0.00000000    0.00000000    0.00000000
     The ionic contribution  to forces
     atom    1 type  1   force =    -0.00000000   -0.00000000   -0.00000000
     atom    2 type  1   force =    -0.00000000    0.00000000    0.00000000
     atom    3 type  1   force =     0.00000000   -0.00000000    0.00000000
     atom    4 type  1   force =     0.00000000    0.00000000   -0.00000000
     The local contribution  to forces
     atom    1 type  1   force =     0.00000000   -0.00000000    0.00000000
     atom    2 type  1   force =     0.00000000   -0.00000000   -0.00000000
     atom    3 type  1   force =    -0.00000000   -0.00000000   -0.00000000
     atom    4 type  1   force =    -0.00000000   -0.00000000    0.00000000
     The core correction contribution to forces
     atom    1 type  1   force =     0.00000000    0.00000000    0.00000000
     atom    2 type  1   force =     0.00000000    0.00000000    0.00000000
     atom    3 type  1   force =     0.00000000    0.00000000    0.00000000
     atom    4 type  1   force =     0.00000000    0.00000000    0.00000000
     The Hubbard contrib.    to forces
     atom    1 type  1   force =     0.00000000    0.00000000    0.00000000
     atom    2 type  1   force =     0.00000000    0.00000000    0.00000000
     atom    3 type  1   force =     0.00000000    0.00000000    0.00000000
     atom    4 type  1   force =     0.00000000    0.00000000    0.00000000
     The SCF correction term to forces
     atom    1 type  1   force =     0.00000000    0.00000000    0.00000000
     atom    2 type  1   force =     0.00000000    0.00000000    0.00000000
     atom    3 type  1   force =    -0.00000000    0.00000000    0.00000000
     atom    4 type  1   force =    -0.00000000    0.00000000    0.00000000

     Total force =     0.000000     Total SCF correction =     0.000000


     Computing stress (Cartesian axis) and pressure

          total   stress  (Ry/bohr**3)                   (kbar)     P=       -0.04
  -0.00000024   0.00000000   0.00000000           -0.04        0.00        0.00
   0.00000000  -0.00000024   0.00000000            0.00       -0.04        0.00
   0.00000000   0.00000000  -0.00000024            0.00        0.00       -0.04


     Writing all to output data dir ./pwscf.save/

     init_run     :      3.31s CPU      3.38s WALL (       2 calls)
     electrons    :     17.51s CPU     18.68s WALL (       6 calls)
     update_pot   :      4.84s CPU      4.87s WALL (       4 calls)
     forces       :      2.54s CPU      2.66s WALL (       6 calls)
     stress       :      7.99s CPU      8.41s WALL (       6 calls)

     Called by init_run:
     wfcinit      :      0.15s CPU      0.16s WALL (       2 calls)
     potinit      :      1.47s CPU      1.49s WALL (       2 calls)
     hinit0       :      1.61s CPU      1.62s WALL (       2 calls)

     Called by electrons:
     c_bands      :      2.82s CPU      2.86s WALL (      25 calls)
     sum_band     :      1.32s CPU      1.67s WALL (      25 calls)
     v_of_rho     :      0.32s CPU      0.33s WALL (      29 calls)
     newd         :      0.82s CPU      1.24s WALL (      29 calls)
     PAW_pot      :     17.66s CPU     17.87s WALL (      33 calls)
     mix_rho      :      0.04s CPU      0.04s WALL (      25 calls)

     Called by c_bands:
     init_us_2    :      0.17s CPU      0.17s WALL (     272 calls)
     init_us_2:cp :      0.17s CPU      0.17s WALL (     272 calls)
     cegterg      :      2.44s CPU      2.47s WALL (     100 calls)

     Called by *egterg:
     cdiaghg      :      0.08s CPU      0.08s WALL (     452 calls)
     h_psi        :      2.07s CPU      2.09s WALL (     484 calls)
     s_psi        :      0.15s CPU      0.15s WALL (     484 calls)
     g_psi        :      0.02s CPU      0.02s WALL (     376 calls)

     Called by h_psi:
     h_psi:calbec :      0.21s CPU      0.22s WALL (     484 calls)
     vloc_psi     :      1.69s CPU      1.70s WALL (     484 calls)
     add_vuspsi   :      0.15s CPU      0.15s WALL (     484 calls)

     General routines
     calbec       :      0.34s CPU      0.35s WALL (     720 calls)
     fft          :      0.29s CPU      0.29s WALL (     521 calls)
     ffts         :      0.09s CPU      0.09s WALL (      54 calls)
     fftw         :      1.70s CPU      1.71s WALL (    7846 calls)
     interpolate  :      0.10s CPU      0.10s WALL (      29 calls)

     Parallel routines

     PWSCF        :     38.70s CPU     40.90s WALL


   This run was terminated on:  13:19: 8   4Apr2024            

=------------------------------------------------------------------------------=
   JOB DONE.
=------------------------------------------------------------------------------=
