
     Program PWSCF v.7.2 starts on  4Apr2024 at 14:25:52 

     This program is part of the open-source Quantum ESPRESSO suite
     for quantum simulation of materials; please cite
         "P. Giannozzi et al., J. Phys.:Condens. Matter 21 395502 (2009);
         "P. Giannozzi et al., J. Phys.:Condens. Matter 29 465901 (2017);
         "P. Giannozzi et al., J. Chem. Phys. 152 154105 (2020);
          URL http://www.quantum-espresso.org", 
     in publications or presentations arising from this work. More details at
     http://www.quantum-espresso.org/quote

     Parallel version (MPI & OpenMP), running on       1 processor cores
     Number of MPI processes:                 1
     Threads/MPI process:                     1

     MPI processes distributed on     1 nodes
     38860 MiB available memory on the printing compute node when the environment starts

     Reading input from input.pwi
Warning: card &CELL ignored
Warning: card / ignored

     Current dimensions of program PWSCF are:
     Max number of different atomic species (ntypx) = 10
     Max number of k-points (npk) =  40000
     Max angular momentum in pseudopotentials (lmaxx) =  4
     file Al.pbe-n-kjpaw_psl.1.0.0.UPF: wavefunction(s)  3S 3P renormalized
     Found identity + (  0.0000  0.5000  0.5000) symmetry
     This is a supercell, fractional translations are disabled
     Message from routine setup:
     using ibrav=0 with symmetry is DISCOURAGED, use correct ibrav instead

     Subspace diagonalization in iterative solution of the eigenvalue problem:
     a serial algorithm will be used


     G-vector sticks info
     --------------------
     sticks:   dense  smooth     PW     G-vecs:    dense   smooth      PW
     Sum         681     569    177                13613    10131    1647

     Using Slab Decomposition



     bravais-lattice index     =            0
     lattice parameter (alat)  =       7.7697  a.u.
     unit-cell volume          =     469.0423 (a.u.)^3
     number of atoms/cell      =            4
     number of atomic types    =            1
     number of electrons       =        12.00
     number of Kohn-Sham states=           10
     kinetic-energy cutoff     =      29.4943  Ry
     charge density cutoff     =     143.4837  Ry
     scf convergence threshold =      1.0E-06
     mixing beta               =       0.7000
     number of iterations used =            8  plain     mixing
     Exchange-correlation= SLA  PW   PBX  PBC
                           (   1   4   3   4   0   0   0)

     celldm(1)=   7.769696  celldm(2)=   0.000000  celldm(3)=   0.000000
     celldm(4)=   0.000000  celldm(5)=   0.000000  celldm(6)=   0.000000

     crystal axes: (cart. coord. in units of alat)
               a(1) = (   1.000000   0.000000   0.000000 )  
               a(2) = (   0.000000   1.000000   0.000000 )  
               a(3) = (   0.000000   0.000000   1.000000 )  

     reciprocal axes: (cart. coord. in units 2 pi/alat)
               b(1) = (  1.000000  0.000000  0.000000 )  
               b(2) = (  0.000000  1.000000  0.000000 )  
               b(3) = (  0.000000  0.000000  1.000000 )  


     PseudoPot. # 1 for Al read from file:
     /home/jgeorge/espresso/pseudo/Al.pbe-n-kjpaw_psl.1.0.0.UPF
     MD5 check sum: cfc449ca30b5f3223ec38ddd88ac046d
     Pseudo is Projector augmented-wave + core cor, Zval =  3.0
     Generated using "atomic" code by A. Dal Corso  v.5.1
     Shape of augmentation charge: PSQ
     Using radial grid of 1135 points,  6 beta functions with: 
                l(1) =   0
                l(2) =   0
                l(3) =   1
                l(4) =   1
                l(5) =   2
                l(6) =   2
     Q(r) pseudized with 0 coefficients 


     atomic species   valence    mass     pseudopotential
        Al             3.00    26.98154     Al( 1.00)

     48 Sym. Ops., with inversion, found



   Cartesian axes

     site n.     atom                  positions (alat units)
         1           Al  tau(   1) = (   0.0000000   0.0000000   0.0000000  )
         2           Al  tau(   2) = (   0.0000000   0.5000000   0.5000000  )
         3           Al  tau(   3) = (   0.5000000   0.0000000   0.5000000  )
         4           Al  tau(   4) = (   0.5000000   0.5000000   0.0000000  )

     number of k points=     4  Gaussian smearing, width (Ry)=  0.0200
                       cart. coord. in units 2pi/alat
        k(    1) = (   0.0000000   0.0000000   0.0000000), wk =   0.0740741
        k(    2) = (   0.0000000   0.0000000   0.3333333), wk =   0.4444444
        k(    3) = (   0.0000000   0.3333333   0.3333333), wk =   0.8888889
        k(    4) = (   0.3333333   0.3333333   0.3333333), wk =   0.5925926

     Dense  grid:    13613 G-vectors     FFT dimensions: (  30,  30,  30)

     Smooth grid:    10131 G-vectors     FFT dimensions: (  27,  27,  27)

     Estimated max dynamical RAM per process >      52.56 MB

     Initial potential from superposition of free atoms

     starting charge      11.9908, renormalised to      12.0000
     Starting wfcs are   16 randomized atomic wfcs
     Checking if some PAW data can be deallocated... 

     total cpu time spent up to now is        1.4 secs

     per-process dynamical memory:    20.8 Mb

     Self-consistent Calculation

     iteration #  1     ecut=    29.49 Ry     beta= 0.70
     Davidson diagonalization with overlap
     ethr =  1.00E-02,  avg # of iterations =  3.8

     Threshold (ethr) on eigenvalues was too large:
     Diagonalizing with lowered threshold

     Davidson diagonalization with overlap
     ethr =  1.74E-04,  avg # of iterations =  3.0

     total cpu time spent up to now is        2.4 secs

     total energy              =    -158.01020408 Ry
     estimated scf accuracy    <       0.02108129 Ry

     iteration #  2     ecut=    29.49 Ry     beta= 0.70
     Davidson diagonalization with overlap
     ethr =  1.76E-04,  avg # of iterations =  1.0

     total cpu time spent up to now is        3.2 secs

     total energy              =    -158.01015661 Ry
     estimated scf accuracy    <       0.00149321 Ry

     iteration #  3     ecut=    29.49 Ry     beta= 0.70
     Davidson diagonalization with overlap
     ethr =  1.24E-05,  avg # of iterations =  2.0

     total cpu time spent up to now is        4.0 secs

     total energy              =    -158.01025324 Ry
     estimated scf accuracy    <       0.00000385 Ry

     iteration #  4     ecut=    29.49 Ry     beta= 0.70
     Davidson diagonalization with overlap
     ethr =  3.21E-08,  avg # of iterations =  5.5

     total cpu time spent up to now is        4.9 secs

     total energy              =    -158.01026796 Ry
     estimated scf accuracy    <       0.00000104 Ry

     iteration #  5     ecut=    29.49 Ry     beta= 0.70
     Davidson diagonalization with overlap
     ethr =  8.66E-09,  avg # of iterations =  2.0

     total cpu time spent up to now is        5.8 secs

     End of self-consistent calculation

          k = 0.0000 0.0000 0.0000 (  1309 PWs)   bands (ev):

    -3.4048   4.5796   4.5796   4.5796   5.7837   5.7837   5.7838  12.7440
    12.7440  12.7441

          k = 0.0000 0.0000 0.3333 (  1246 PWs)   bands (ev):

    -2.4344   0.4375   5.4759   5.4759   6.7229   6.7230   8.1725   8.1725
     9.5417   9.5418

          k = 0.0000 0.3333 0.3333 (  1276 PWs)   bands (ev):

    -1.4704   1.3831   1.3831   4.1824   6.3734   7.6902   9.0721   9.0721
    10.3986  10.3986

          k = 0.3333 0.3333 0.3333 (  1271 PWs)   bands (ev):

    -0.5125   2.3233   2.3233   2.3233   5.1129   5.1129   5.1129   7.8582
    13.3870  13.3871

     the Fermi energy is     7.5396 ev

!    total energy              =    -158.01026815 Ry
     total all-electron energy =     -1942.581394 Ry
     estimated scf accuracy    <       0.00000001 Ry
     smearing contrib. (-TS)   =      -0.00456391 Ry
     internal energy E=F+TS    =    -158.00570424 Ry

     The total energy is F=E-TS. E is the sum of the following terms:
     one-electron contribution =      12.17245290 Ry
     hartree contribution      =       0.01982454 Ry
     xc contribution           =     -10.25190750 Ry
     ewald contribution        =     -21.24343672 Ry
     one-center paw contrib.   =    -138.70263745 Ry

     convergence has been achieved in   5 iterations

     Forces acting on atoms (cartesian axes, Ry/au):

     atom    1 type  1   force =     0.00000000    0.00000000    0.00000000
     atom    2 type  1   force =     0.00000000    0.00000000    0.00000000
     atom    3 type  1   force =     0.00000000    0.00000000    0.00000000
     atom    4 type  1   force =     0.00000000    0.00000000    0.00000000
     The non-local contrib.  to forces
     atom    1 type  1   force =     0.00000000    0.00000000    0.00000000
     atom    2 type  1   force =     0.00000000    0.00000000    0.00000000
     atom    3 type  1   force =     0.00000000    0.00000000    0.00000000
     atom    4 type  1   force =     0.00000000    0.00000000    0.00000000
     The ionic contribution  to forces
     atom    1 type  1   force =    -0.00000000   -0.00000000   -0.00000000
     atom    2 type  1   force =    -0.00000000    0.00000000    0.00000000
     atom    3 type  1   force =     0.00000000   -0.00000000    0.00000000
     atom    4 type  1   force =     0.00000000    0.00000000   -0.00000000
     The local contribution  to forces
     atom    1 type  1   force =    -0.00000000   -0.00000000    0.00000000
     atom    2 type  1   force =    -0.00000000   -0.00000000   -0.00000000
     atom    3 type  1   force =    -0.00000000   -0.00000000   -0.00000000
     atom    4 type  1   force =    -0.00000000   -0.00000000    0.00000000
     The core correction contribution to forces
     atom    1 type  1   force =     0.00000000    0.00000000    0.00000000
     atom    2 type  1   force =     0.00000000   -0.00000000   -0.00000000
     atom    3 type  1   force =    -0.00000000    0.00000000   -0.00000000
     atom    4 type  1   force =    -0.00000000   -0.00000000    0.00000000
     The Hubbard contrib.    to forces
     atom    1 type  1   force =     0.00000000    0.00000000    0.00000000
     atom    2 type  1   force =     0.00000000    0.00000000    0.00000000
     atom    3 type  1   force =     0.00000000    0.00000000    0.00000000
     atom    4 type  1   force =     0.00000000    0.00000000    0.00000000
     The SCF correction term to forces
     atom    1 type  1   force =     0.00000000    0.00000000    0.00000000
     atom    2 type  1   force =     0.00000000   -0.00000000   -0.00000000
     atom    3 type  1   force =    -0.00000000    0.00000000   -0.00000000
     atom    4 type  1   force =    -0.00000000   -0.00000000    0.00000000

     Total force =     0.000000     Total SCF correction =     0.000000


     Computing stress (Cartesian axis) and pressure

          total   stress  (Ry/bohr**3)                   (kbar)     P=      -31.55
  -0.00021447   0.00000000   0.00000000          -31.55        0.00        0.00
   0.00000000  -0.00021447   0.00000000            0.00      -31.55        0.00
   0.00000000   0.00000000  -0.00021447            0.00        0.00      -31.55


     Writing all to output data dir ./pwscf.save/

     init_run     :      1.17s CPU      1.23s WALL (       1 calls)
     electrons    :      4.06s CPU      4.46s WALL (       1 calls)
     forces       :      0.10s CPU      0.13s WALL (       1 calls)
     stress       :      0.57s CPU      0.63s WALL (       1 calls)

     Called by init_run:
     wfcinit      :      0.11s CPU      0.11s WALL (       1 calls)
     potinit      :      0.66s CPU      0.71s WALL (       1 calls)
     hinit0       :      0.35s CPU      0.35s WALL (       1 calls)

     Called by electrons:
     c_bands      :      0.62s CPU      0.63s WALL (       6 calls)
     sum_band     :      0.34s CPU      0.41s WALL (       6 calls)
     v_of_rho     :      0.07s CPU      0.07s WALL (       6 calls)
     newd         :      0.19s CPU      0.27s WALL (       6 calls)
     PAW_pot      :      3.43s CPU      3.64s WALL (       6 calls)
     mix_rho      :      0.01s CPU      0.01s WALL (       6 calls)

     Called by c_bands:
     init_us_2    :      0.04s CPU      0.04s WALL (      60 calls)
     init_us_2:cp :      0.04s CPU      0.04s WALL (      60 calls)
     cegterg      :      0.52s CPU      0.53s WALL (      24 calls)

     Called by *egterg:
     cdiaghg      :      0.02s CPU      0.02s WALL (      89 calls)
     h_psi        :      0.50s CPU      0.51s WALL (      97 calls)
     s_psi        :      0.03s CPU      0.03s WALL (      97 calls)
     g_psi        :      0.00s CPU      0.00s WALL (      69 calls)

     Called by h_psi:
     h_psi:calbec :      0.05s CPU      0.05s WALL (      97 calls)
     vloc_psi     :      0.42s CPU      0.43s WALL (      97 calls)
     add_vuspsi   :      0.03s CPU      0.03s WALL (      97 calls)

     General routines
     calbec       :      0.07s CPU      0.08s WALL (     141 calls)
     fft          :      0.17s CPU      0.17s WALL (     102 calls)
     ffts         :      0.08s CPU      0.08s WALL (      12 calls)
     fftw         :      0.43s CPU      0.43s WALL (    1688 calls)
     interpolate  :      0.08s CPU      0.08s WALL (       6 calls)

     Parallel routines

     PWSCF        :      6.05s CPU      6.79s WALL


   This run was terminated on:  14:25:59   4Apr2024            

=------------------------------------------------------------------------------=
   JOB DONE.
=------------------------------------------------------------------------------=
